
                                 *****************
                                 * O   R   C   A *
                                 *****************

                                            #,                                       
                                            ###                                      
                                            ####                                     
                                            #####                                    
                                            ######                                   
                                           ########,                                 
                                     ,,################,,,,,                         
                               ,,#################################,,                 
                          ,,##########################################,,             
                       ,#########################################, ''#####,          
                    ,#############################################,,   '####,        
                  ,##################################################,,,,####,       
                ,###########''''           ''''###############################       
              ,#####''   ,,,,##########,,,,          '''####'''          '####       
            ,##' ,,,,###########################,,,                        '##       
           ' ,,###''''                  '''############,,,                           
         ,,##''                                '''############,,,,        ,,,,,,###''
      ,#''                                            '''#######################'''  
     '                                                          ''''####''''         
             ,#######,   #######,   ,#######,      ##                                
            ,#'     '#,  ##    ##  ,#'     '#,    #''#        ,####,   ,####,        
            ##       ##  ##   ,#'  ##            #'  '#       #'       #'  '#        
            ##       ##  #######   ##           ,######,      #####,   #    #        
            '#,     ,#'  ##    ##  '#,     ,#' ,#      #,     #,   #   #,  ,#        
             '#######'   ##     ##  '#######'  #'      '#     '####' # '####'        



                #########################################################
                #                        -***-                          #
                #          Department of theory and spectroscopy        #
                #                                                       #
                #                      Frank Neese                      #
                #                                                       #
                #     Directorship, Architecture, Infrastructure        #
                #                    SHARK, DRIVERS                     #
                #        Core code/Algorithms in most modules           #
                #                                                       #
                #        Max Planck Institute fuer Kohlenforschung      #
                #                Kaiser Wilhelm Platz 1                 #
                #                 D-45470 Muelheim/Ruhr                 #
                #                      Germany                          #
                #                                                       #
                #                  All rights reserved                  #
                #                        -***-                          #
                #########################################################


                         Program Version 6.0.1  -  RELEASE   -


 With contributions from (in alphabetic order):
[Max-Planck-Institut fuer Kohlenforschung]                               
  Daniel Aravena         : Magnetic Suceptibility                        
  Michael Atanasov       : Ab Initio Ligand Field Theory (pilot matlab implementation)
  Alexander A. Auer      : GIAO ZORA, VPT2 properties, NMR spectrum      
  Ute Becker             : All parallelization in ORCA, NUMFREQ, NUMCALC 
  Giovanni Bistoni       : ED, misc. LED, open-shell LED, HFLD           
  Martin Brehm           : Molecular dynamics                            
  Dmytro Bykov           : pre 5.0 version of the SCF Hessian            
  Marcos Casanova-Páez   : Triplet and SCS-CIS(D). UHF-(DLPNO)-IP/EA/STEOM-CCSD. UHF-CVS-IP/STEOM-CCSD   
  Vijay G. Chilkuri      : MRCI spin determinant printing, contributions to CSF-ICE 
  Pauline Colinet        : FMM embedding                                 
  Dipayan Datta          : RHF DLPNO-CCSD density                        
  Achintya Kumar Dutta   : EOM-CC, STEOM-CC                              
  Nicolas Foglia         : Exact transition moments, OPA infrastructure, MCD improvements    
  Dmitry Ganyushin       : Spin-Orbit,Spin-Spin,Magnetic field MRCI      
  Miquel Garcia-Rates    : C-PCM and meta-GGA Hessian, CCSD/C-PCM, Gaussian charge scheme 
  Tiago L. C. Gouveia    : GS-ROHF, GS-ROCIS                             
  Yang Guo               : DLPNO-NEVPT2, F12-NEVPT2, CIM, IAO-localization        
  Andreas Hansen         : Spin unrestricted coupled pair/coupled cluster methods 
  Ingolf Harden          : AUTO-CI MPn and infrastructure                
  Benjamin Helmich-Paris : MC-RPA, TRAH-(SCF,CASSCF), AVAS, COSX integrals, SCF dyn. polar. 
  Lee Huntington         : MR-EOM, pCC                                   
  Robert Izsak           : Overlap fitted RIJCOSX, COSX-SCS-MP3, EOM     
  Riya Kayal             : Wick's Theorem for AUTO-CI, AUTO-CI UHF-CCSDT 
  Emily Kempfer          : AUTO-CI, RHF CISDT and CCSDT                  
  Christian Kollmar      : KDIIS, OOCD, Brueckner-CCSD(T), CCSD density, CASPT2, CASPT2-K, improved NEVPT2 
  Axel Koslowski         : Symmetry handling                             
  Simone Kossmann        : meta-GGA functionals, TD-DFT gradient, OOMP2, (MP2 Hessian; deprecated post 5.0) 
  Lucas Lang             : DCDCAS                                        
  Marvin Lechner         : AUTO-CI (C++ implementation), FIC-MRCC        
  Spencer Leger          : CASSCF response                               
  Dagmar Lenk            : GEPOL surface, SMD, ORCA-2-JSON               
  Dimitrios Liakos       : Extrapolation schemes; Compound Job, initial MDCI parallelization 
  Dimitrios Manganas     : Further ROCIS development; embedding schemes. LFT, Crystal Embedding 
  Dimitrios Pantazis     : SARC Basis sets                               
  Anastasios Papadopoulos: AUTO-CI, single reference methods and gradients 
  Taras Petrenko         : pre 6.0 DFT Hessian and TD-DFT gradient, (ASA, deprecated), ECA, 1-Electron XAS/XES, NRVS 
  Peter Pinski           : DLPNO-MP2, DLPNO-MP2 Gradient                 
  Christoph Reimann      : Effective Core Potentials                     
  Marius Retegan         : Local ZFS, SOC                                
  Christoph Riplinger    : Optimizer, TS searches, QM/MM, DLPNO-CCSD(T), (RO)-DLPNO pert. Triples 
  Michael Roemelt        : Original ROCIS implementation                 
  Masaaki Saitow         : Open-shell DLPNO-CCSD energy and density      
  Barbara Sandhoefer     : DKH picture change effects                    
  Kantharuban Sivalingam : CASSCF convergence/infrastructure, NEVPT2 and variants, FIC-MRCI 
  Bernardo de Souza      : ESD, SOC TD-DFT                               
  Georgi L. Stoychev     : AutoAux, RI-MP2 NMR, DLPNO-MP2 response, X2C  
  Van Anh Tran           : RI-MP2 g-tensors                              
  Willem Van den Heuvel  : Paramagnetic NMR                              
  Zikuan Wang            : NOTCH, Electric field optimization            
  Frank Wennmohs         : Technical directorship and infrastructure     
  Hang Xu                : AUTO-CI-Response properties                   
                                                                         
[FACCTs GmbH]                                                            
  Markus Bursch, Miquel Garcia-Rates, Christoph Riplinger, Bernardo de Souza, Georgi L. Stoychev 
                                                                 
  APM, Basis sets (HGBS, AHGBS, def-TZVP (Ac-Lr), def2-XVPD (La-Lu)), CI-OPT, improved COSX, DLPNO-Multilevel,           
  DOCKER, DRACO, updates on ESD, GOAT, IRC, LR-CPCM, MBIS, meta-GGA TD-DFT gradient, ML-optimized integration grids, 
  MM, NACMEs, nearIR, NEB, NEB-TS, NL-DFT gradient (VV10), 2- and 3-layer-ONIOM, interface openCOSMO-RS, QMMM,   
  Crystal-QMMM, SF, symmetry and pop. for TD-DFT, r2SCAN hybrids, SOLVATOR                                   
                                                                         
[Other institutions]                                                     
  V. Asgeirsson          : NEB                                           
  Christoph Bannwarth    : sTDA-DFT, sTD-DFT, PBEh-3c, B97-3c, D3        
  Sebastian Ehlert       : rSCAN, r2SCAN, r2SCAN-3c, D4, dhf basis sets  
  Marvin Friede          : D4 for Fr, Ra, Ac-Lr                          
  Lars Goerigk           : TD-DFT with DH, B97 family of functionals     
  Stefan Grimme          : VdW corrections, initial TS optimization, DFT functionals, gCP, sTDA/sTD-DF 
  Waldemar Hujo          : DFT-NL                                        
  H. Jonsson             : NEB                                           
  Holger Kruse           : gCP                                           
  Marcel Mueller         : wB97X-3c, vDZP basis set                      
  Hagen Neugebauer       : wr2SCAN                                       
  Tobias Risthaus        : range-separated hybrid DFT                    
  Lukas Wittmann         : regularized MP2, r2SCAN double-hybrids, wr2SCAN        
                                                                         
We gratefully acknowledge several colleagues who have allowed us to      
interface, adapt or use parts of their codes:                            
  Ed Valeev, F. Pavosevic, A. Kumar             : LibInt (2-el integral package), F12 methods 
  Garnet Chan, S. Sharma, J. Yang, R. Olivares  : DMRG                   
  Ulf Ekstrom                                   : XCFun DFT Library      
  Mihaly Kallay                                 : mrcc  (arbitrary order and MRCC methods)
  Frank Weinhold                                : gennbo (NPA and NBO analysis)           
  Simon Mueller                                 : openCOSMO-RS                            
  Christopher J. Cramer and Donald G. Truhlar   : smd solvation model                     
  S Lehtola, MJT Oliveira, MAL Marques          : LibXC Library                           
  Liviu Ungur et al                             : ANISO software                          


 Your calculation uses the libint2 library for the computation of 2-el integrals
 For citations please refer to: http://libint.valeyev.net

 Your ORCA version has been built with support for libXC version: 6.2.2
 For citations please refer to: https://libxc.gitlab.io

 This ORCA versions uses:
   CBLAS   interface :  Fast vector & matrix operations
   LAPACKE interface :  Fast linear algebra routines
   SCALAPACK package :  Parallel linear algebra routines
   Shared memory     :  Shared parallel matrices
   BLAS/LAPACK       :  OpenBLAS 0.3.27  USE64BITINT DYNAMIC_ARCH NO_AFFINITY Cooperlake SINGLE_THREADED
        Core in use  :  Cooperlake
   Copyright (c) 2011-2014, The OpenBLAS Project


XCFun DFT library Copyright 2009-2010 Ulf Ekstrom and contributors.
See http://admol.org/xcfun for more information.
This is free software; see the source code for copying conditions.
There is ABSOLUTELY NO WARRANTY; not even for MERCHANTABILITY or FITNESS FOR A PARTICULAR PURPOSE.
For details see the documentation.
Scientific users of this library should cite U. Ekstrom, L. Visscher, R. Bast, A. J. Thorvaldsen and K. Ruud;
J.Chem.Theor.Comp. 2010, DOI: 10.1021/ct100117s
XCFun Version 0.99 

Warning: RI is on but no J-basis has been assigned. Assigning Def2/J (nothing to worry about!)
================================================================================

----- Orbital basis set information -----
Your calculation utilizes the basis: 6-311G(d,p)
   H, Li - Ne  : R. Krishnan, J. S. Binkley, R. Seeger and J. A. Pople, J. Chem. Phys. 72, 650 (1980).
   Na - Ar     : A. D. McLean and G. S. Chandler J. Chem. Phys. 72, 5639, (1980).
   K  - Ca     : J.-P. Blaudeau, M. P. McGrath, L. A. Curtiss and L. Radom, J. Chem. Phys. 107, 5016 (1997).
   Ga - Kr     : L. A. Curtiss, M. P. McGrath, J.-P. Blandeau, N. E. Davis, R. C. Binning and L. Radom, J. Chem. Phys. 103, 6104 (1995).
   Pol./Diff.
   H, Li - Cl  : T. Clark, J. Chandrasekhar and P. v. R. Schleyer, J. Comp. Chem. 4, 294 (1983).
   H - Ne      : M. J. Frisch, J. A. Pople and J. S. Binkley, J. Chem. Phys. 80, 3265 (1984).

----- AuxJ basis set information -----
Your calculation utilizes the auxiliary basis: def2/J
   F. Weigend, Phys. Chem. Chem. Phys. 8, 1057 (2006).

================================================================================
                                        WARNINGS
                       Please study these warnings very carefully!
================================================================================

WARNING: Functional chosen is sensitive to the integration grid.
         DEFGRID3 seems to be a minimum grid for robust results!
INFO   : Checking CIS options ...

WARNING: CIS/ROCIS methods need fully converged wavefunctions
  ===> : Setting SCFConvForced true
         You can overwrite this default with %scf ConvForced false 


================================================================================
                                       INPUT FILE
================================================================================
NAME = QX-DMA.inp
|  1> ! M062X 6-311G(d,p) TightSCF CPCM(THF)
|  2> 
|  3> %tddft
|  4>   nroots 10            
|  5> end
|  6> 
|  7> * xyz 0 1
|  8>    N       -1.90799        2.40480        4.72204
|  9>    N       -1.34517       -0.28641        4.90561
| 10>    C       -2.92291        1.51690        4.80893
| 11>    C       -2.63140        0.11985        4.85341
| 12>    C       -0.65455        1.99376        4.71807
| 13>    C       -0.35979        0.59043        4.88065
| 14>    C       -4.27237        1.99242        4.81461
| 15>    C       -3.68201       -0.85869        4.87842
| 16>    C       -5.26518        1.01407        4.84736
| 17>    C       -4.98268       -0.35188        4.88459
| 18>    H       -6.30629        1.31013        4.83224
| 19>    H       -5.81976       -1.03622        4.93053
| 20>    C        0.37801        3.04531        4.50781
| 21>    C        0.26327        4.26956        5.18024
| 22>    C        1.42994        2.86651        3.59979
| 23>    C        1.19229        5.28312        4.96611
| 24>    H       -0.55822        4.41590        5.87076
| 25>    C        2.34700        3.88844        3.37402
| 26>    H        1.52484        1.93263        3.05904
| 27>    C        2.23618        5.09602        4.06129
| 28>    H        1.09835        6.22079        5.50265
| 29>    H        3.14887        3.74087        2.65925
| 30>    H        2.95693        5.88788        3.88983
| 31>    C        1.01212        0.04003        5.05708
| 32>    C        1.93655        0.63967        5.92282
| 33>    C        1.37075       -1.14336        4.39730
| 34>    C        3.19189        0.07168        6.11761
| 35>    H        1.67069        1.54455        6.45570
| 36>    C        2.63277       -1.69989        4.58099
| 37>    H        0.65167       -1.62080        3.74331
| 38>    C        3.54714       -1.09442        5.44178
| 39>    H        3.89245        0.54106        6.79922
| 40>    H        2.89984       -2.60998        4.05532
| 41>    H        4.52911       -1.53066        5.58841
| 42>    C       -4.62761        3.40731        4.78084
| 43>    C       -5.89716        3.93400        5.01180
| 44>    S       -3.51851        4.69046        4.38106
| 45>    C       -5.99079        5.32032        4.85630
| 46>    H       -6.74095        3.32449        5.30380
| 47>    C       -4.78312        5.90915        4.49935
| 48>    H       -6.90480        5.87616        5.00659
| 49>    C       -3.44843       -2.29581        4.89383
| 50>    C       -4.40160       -3.27814        4.68503
| 51>    S       -1.89683       -3.05407        5.23279
| 52>    C       -3.92161       -4.59481        4.81639
| 53>    H       -5.43111       -3.05681        4.43725
| 54>    C       -2.57940       -4.66217        5.13162
| 55>    H       -4.55010       -5.46892        4.70717
| 56>    C       -1.75539       -5.85180        5.33515
| 57>    C       -2.10754       -7.08459        4.75972
| 58>    C       -1.34864       -8.22707        4.95006
| 59>    H       -2.98801       -7.14783        4.13013
| 60>    C       -0.16706       -8.20114        5.72677
| 61>    H       -1.67285       -9.14495        4.47940
| 62>    N        0.61190       -9.33077        5.89629
| 63>    C       -0.58828       -5.83092        6.11661
| 64>    H       -0.28796       -4.91004        6.60473
| 65>    C        0.18482       -6.96376        6.31263
| 66>    H        1.06332       -6.88506        6.93801
| 67>    C       -5.19286        8.39622        4.26125
| 68>    C       -6.58540        8.38303        4.55703
| 69>    N       -7.71395        8.33049        4.80359
| 70>    C       -4.62373        9.73037        3.96292
| 71>    O       -5.25238       10.76035        3.95560
| 72>    O       -3.29151        9.68913        3.69029
| 73>    H       -3.03267       10.60359        3.50833
| 74>    C       -4.42138        7.26531        4.24819
| 75>    H       -3.37801        7.43528        4.00290
| 76>    C        0.12351      -10.62122        5.43768
| 77>    H       -0.80235      -10.92860        5.94504
| 78>    H       -0.06728      -10.61196        4.35986
| 79>    H        0.88379      -11.37747        5.62897
| 80>    C        1.72866       -9.30557        6.82685
| 81>    H        2.45257       -8.53144        6.55340
| 82>    H        1.41274       -9.12553        7.86469
| 83>    H        2.24403      -10.26447        6.78916
| 84> *
| 85> 
| 86> 
| 87>                          ****END OF INPUT****
================================================================================

                       ****************************
                       * Single Point Calculation *
                       ****************************

---------------------------------
CARTESIAN COORDINATES (ANGSTROEM)
---------------------------------
  N     -1.907990    2.404800    4.722040
  N     -1.345170   -0.286410    4.905610
  C     -2.922910    1.516900    4.808930
  C     -2.631400    0.119850    4.853410
  C     -0.654550    1.993760    4.718070
  C     -0.359790    0.590430    4.880650
  C     -4.272370    1.992420    4.814610
  C     -3.682010   -0.858690    4.878420
  C     -5.265180    1.014070    4.847360
  C     -4.982680   -0.351880    4.884590
  H     -6.306290    1.310130    4.832240
  H     -5.819760   -1.036220    4.930530
  C      0.378010    3.045310    4.507810
  C      0.263270    4.269560    5.180240
  C      1.429940    2.866510    3.599790
  C      1.192290    5.283120    4.966110
  H     -0.558220    4.415900    5.870760
  C      2.347000    3.888440    3.374020
  H      1.524840    1.932630    3.059040
  C      2.236180    5.096020    4.061290
  H      1.098350    6.220790    5.502650
  H      3.148870    3.740870    2.659250
  H      2.956930    5.887880    3.889830
  C      1.012120    0.040030    5.057080
  C      1.936550    0.639670    5.922820
  C      1.370750   -1.143360    4.397300
  C      3.191890    0.071680    6.117610
  H      1.670690    1.544550    6.455700
  C      2.632770   -1.699890    4.580990
  H      0.651670   -1.620800    3.743310
  C      3.547140   -1.094420    5.441780
  H      3.892450    0.541060    6.799220
  H      2.899840   -2.609980    4.055320
  H      4.529110   -1.530660    5.588410
  C     -4.627610    3.407310    4.780840
  C     -5.897160    3.934000    5.011800
  S     -3.518510    4.690460    4.381060
  C     -5.990790    5.320320    4.856300
  H     -6.740950    3.324490    5.303800
  C     -4.783120    5.909150    4.499350
  H     -6.904800    5.876160    5.006590
  C     -3.448430   -2.295810    4.893830
  C     -4.401600   -3.278140    4.685030
  S     -1.896830   -3.054070    5.232790
  C     -3.921610   -4.594810    4.816390
  H     -5.431110   -3.056810    4.437250
  C     -2.579400   -4.662170    5.131620
  H     -4.550100   -5.468920    4.707170
  C     -1.755390   -5.851800    5.335150
  C     -2.107540   -7.084590    4.759720
  C     -1.348640   -8.227070    4.950060
  H     -2.988010   -7.147830    4.130130
  C     -0.167060   -8.201140    5.726770
  H     -1.672850   -9.144950    4.479400
  N      0.611900   -9.330770    5.896290
  C     -0.588280   -5.830920    6.116610
  H     -0.287960   -4.910040    6.604730
  C      0.184820   -6.963760    6.312630
  H      1.063320   -6.885060    6.938010
  C     -5.192860    8.396220    4.261250
  C     -6.585400    8.383030    4.557030
  N     -7.713950    8.330490    4.803590
  C     -4.623730    9.730370    3.962920
  O     -5.252380   10.760350    3.955600
  O     -3.291510    9.689130    3.690290
  H     -3.032670   10.603590    3.508330
  C     -4.421380    7.265310    4.248190
  H     -3.378010    7.435280    4.002900
  C      0.123510  -10.621220    5.437680
  H     -0.802350  -10.928600    5.945040
  H     -0.067280  -10.611960    4.359860
  H      0.883790  -11.377470    5.628970
  C      1.728660   -9.305570    6.826850
  H      2.452570   -8.531440    6.553400
  H      1.412740   -9.125530    7.864690
  H      2.244030  -10.264470    6.789160

----------------------------
CARTESIAN COORDINATES (A.U.)
----------------------------
  NO LB      ZA    FRAG     MASS         X           Y           Z
   0 N     7.0000    0    14.007   -3.605579    4.544413    8.923362
   1 N     7.0000    0    14.007   -2.542003   -0.541236    9.270259
   2 C     6.0000    0    12.011   -5.523499    2.866526    9.087561
   3 C     6.0000    0    12.011   -4.972625    0.226484    9.171616
   4 C     6.0000    0    12.011   -1.236920    3.767660    8.915860
   5 C     6.0000    0    12.011   -0.679905    1.115751    9.223092
   6 C     6.0000    0    12.011   -8.073609    3.765128    9.098294
   7 C     6.0000    0    12.011   -6.957991   -1.622689    9.218878
   8 C     6.0000    0    12.011   -9.949748    1.916315    9.160183
   9 C     6.0000    0    12.011   -9.415901   -0.664957    9.230537
  10 H     1.0000    0     1.008  -11.917161    2.475787    9.131610
  11 H     1.0000    0     1.008  -10.997753   -1.958172    9.317351
  12 C     6.0000    0    12.011    0.714335    5.754802    8.518526
  13 C     6.0000    0    12.011    0.497508    8.068299    9.789235
  14 C     6.0000    0    12.011    2.702195    5.416919    6.802617
  15 C     6.0000    0    12.011    2.253102    9.983650    9.384588
  16 H     1.0000    0     1.008   -1.054883    8.344842   11.094129
  17 C     6.0000    0    12.011    4.435187    7.348087    6.375974
  18 H     1.0000    0     1.008    2.881530    3.652141    5.780748
  19 C     6.0000    0    12.011    4.225768    9.630082    7.674726
  20 H     1.0000    0     1.008    2.075581   11.755589   10.398502
  21 H     1.0000    0     1.008    5.950502    7.069220    5.025254
  22 H     1.0000    0     1.008    5.587788   11.126481    7.350713
  23 C     6.0000    0    12.011    1.912630    0.075646    9.556496
  24 C     6.0000    0    12.011    3.659549    1.208801   11.192508
  25 C     6.0000    0    12.011    2.590342   -2.160637    8.309693
  26 C     6.0000    0    12.011    6.031798    0.135456   11.560607
  27 H     1.0000    0     1.008    3.157147    2.918777   12.199505
  28 C     6.0000    0    12.011    4.975214   -3.212327    8.656817
  29 H     1.0000    0     1.008    1.231478   -3.062868    7.073831
  30 C     6.0000    0    12.011    6.703123   -2.068154   10.283474
  31 H     1.0000    0     1.008    7.355664    1.022455   12.848664
  32 H     1.0000    0     1.008    5.479903   -4.932147    7.663444
  33 H     1.0000    0     1.008    8.558778   -2.892528   10.560564
  34 C     6.0000    0    12.011   -8.744916    6.438883    9.034478
  35 C     6.0000    0    12.011  -11.144017    7.434183    9.470929
  36 S    16.0000    0    32.060   -6.649020    8.863685    8.279004
  37 C     6.0000    0    12.011  -11.320952   10.053948    9.177077
  38 H     1.0000    0     1.008  -12.738549    6.282376   10.022729
  39 C     6.0000    0    12.011   -9.038787   11.166675    8.502539
  40 H     1.0000    0     1.008  -13.048181   11.104333    9.461084
  41 C     6.0000    0    12.011   -6.516588   -4.338452    9.247998
  42 C     6.0000    0    12.011   -8.317819   -6.194787    8.853424
  43 S    16.0000    0    32.060   -3.584489   -5.771356    9.888540
  44 C     6.0000    0    12.011   -7.410769   -8.682933    9.101658
  45 H     1.0000    0     1.008  -10.263311   -5.776534    8.385187
  46 C     6.0000    0    12.011   -4.874360   -8.810224    9.697356
  47 H     1.0000    0     1.008   -8.598443  -10.334761    8.895262
  48 C     6.0000    0    12.011   -3.317206  -11.058299   10.081972
  49 C     6.0000    0    12.011   -3.982673  -13.387935    8.994567
  50 C     6.0000    0    12.011   -2.548560  -15.546909    9.354258
  51 H     1.0000    0     1.008   -5.646521  -13.507441    7.804815
  52 C     6.0000    0    12.011   -0.315698  -15.497909   10.822027
  53 H     1.0000    0     1.008   -3.161228  -17.281451    8.464839
  54 N     7.0000    0    14.007    1.156323  -17.632600   11.142373
  55 C     6.0000    0    12.011   -1.111688  -11.018842   11.558718
  56 H     1.0000    0     1.008   -0.544166   -9.278631   12.481131
  57 C     6.0000    0    12.011    0.349259  -13.159599   11.929142
  58 H     1.0000    0     1.008    2.009384  -13.010878   13.110939
  59 C     6.0000    0    12.011   -9.813083   15.866556    8.052595
  60 C     6.0000    0    12.011  -12.444602   15.841631    8.611539
  61 N     7.0000    0    14.007  -14.577253   15.742345    9.077470
  62 C     6.0000    0    12.011   -8.737583   18.387734    7.488833
  63 O     8.0000    0    15.999   -9.925560   20.334115    7.475001
  64 O     8.0000    0    15.999   -6.220052   18.309802    6.973637
  65 H     1.0000    0     1.008   -5.730916   20.037881    6.629783
  66 C     6.0000    0    12.011   -8.355197   13.729446    8.027916
  67 H     1.0000    0     1.008   -6.383514   14.050643    7.564385
  68 C     6.0000    0    12.011    0.233400  -20.071197   10.275726
  69 H     1.0000    0     1.008   -1.516222  -20.652061   11.234497
  70 H     1.0000    0     1.008   -0.127141  -20.053698    8.238941
  71 H     1.0000    0     1.008    1.670121  -21.500302   10.637212
  72 C     6.0000    0    12.011    3.266694  -17.584979   12.900877
  73 H     1.0000    0     1.008    4.634686  -16.122085   12.384131
  74 H     1.0000    0     1.008    2.669692  -17.244753   14.862110
  75 H     1.0000    0     1.008    4.240602  -19.397037   12.829653

--------------------------------
INTERNAL COORDINATES (ANGSTROEM)
--------------------------------
 N      0   0   0     0.000000000000     0.00000000     0.00000000
 N      1   0   0     2.755553585289     0.00000000     0.00000000
 C      1   2   0     1.351287862929    60.48768290     0.00000000
 C      2   1   3     1.349873935040    60.58516195     2.47035232
 C      1   2   3     1.319121478902    60.11874009   180.32010199
 C      2   1   3     1.319259311735    60.14356013   183.02117915
 C      3   1   2     1.430801811713   119.35740922   179.50948284
 C      4   2   1     1.435948259444   119.43176401   179.26184299
 C      7   3   1     1.394242798475   116.00697710   177.28400284
 C      9   7   3     1.395353620198   122.91412055     0.54655031
 H      9   7   3     1.082492572769   119.51243179   181.27849835
 H     10   9   7     1.082189745655   117.61777582   178.66760215
 C      5   1   2     1.488672839713   116.06528449   175.54504218
 C     13   5   1     1.401469027485   119.50446576    43.42144329
 C     13   5   1     1.401080470673   121.47688257   226.67057724
 C     14  13   5     1.391486144703   120.51720522   182.10009269
 H     14  13   5     1.083087755494   119.07950896     2.19408460
 C     15  13   5     1.391514305137   120.41329571   176.95417106
 H     15  13   5     1.083304401773   119.95290853   357.76098347
 C     18  15  13     1.393868925581   120.25528196     0.71977002
 H     16  14  13     1.084400721182   119.72673942   180.76985323
 H     18  15  13     1.084282506868   119.62941822   180.76982390
 H     20  18  15     1.084399074926   120.12115985   179.48421402
 C      6   2   1     1.488692296279   116.12626470   175.65887396
 C     24   6   2     1.401301074752   121.53054096   225.62655109
 C     24   6   2     1.401548078876   119.48460692    42.31731052
 C     25  24   6     1.391558227240   120.45997889   177.03437027
 H     25  24   6     1.083259178775   119.96438461   357.84180865
 C     26  24   6     1.391460433286   120.50663653   182.08292262
 H     26  24   6     1.082925629995   119.11975435     1.96889880
 C     27  25  24     1.393821352039   120.23413472     0.63505860
 H     27  25  24     1.084294282056   119.61398524   180.68918385
 H     29  26  24     1.084398055098   119.67306026   180.67046437
 H     31  27  25     1.084467968822   120.11693473   179.46627584
 C      7   3   1     1.459194840520   123.48863157   357.63803661
 C     35   7   3     1.393736732744   125.75679546   191.61316838
 S     35   7   3     1.742527124868   124.35866249    14.04814030
 C     36  35   7     1.398152341235   114.66231074   182.98801293
 H     36  35   7     1.081086492469   122.86481759     3.94075864
 C     38  36  35     1.390180168288   112.97696670   359.90058787
 H     38  36  35     1.080258982744   123.46150279   180.40714961
 C      8   4   2     1.456060087668   123.73886462   356.95370154
 C     42   8   4     1.384594784693   126.03024086   191.99205054
 S     42   8   4     1.759918938247   124.66059622    13.90673693
 C     43  42   8     1.407574416718   114.50841219   182.84546596
 H     43  42   8     1.081791448201   122.99232664     3.07287338
 C     45  43  42     1.380374951453   113.48666349     0.00000000
 H     45  43  42     1.082126138951   123.23888520   178.44789372
 C     47  45  43     1.461381701644   128.30125005   180.31840965
 C     49  47  45     1.405311528274   121.05012561    24.03212332
 C     50  49  47     1.384709022141   122.01627935   180.63811194
 H     50  49  47     1.084255637108   119.49956798     1.87113786
 C     51  50  49     1.414242583647   121.21559024   359.29708897
 H     51  50  49     1.081266227208   118.43950777   180.04255446
 N     53  51  50     1.382598874909   121.53859839   181.48368815
 C     49  47  45     1.404728250624   122.26630255   204.60842341
 H     56  49  47     1.084653498220   119.53901341     1.09888266
 C     56  49  47     1.385436363028   122.01778677   179.60915072
 H     58  56  49     1.081228969460   118.40557294   180.95273225
 C     40  38  36     2.531816672372   107.43569540   179.64442128
 C     60  40  38     1.423666897873    97.44986402   358.94869543
 N     61  60  40     1.156363864750   177.90021856     1.82439361
 C     60  40  38     1.480832863054   147.32749201   179.22759090
 O     63  60  40     1.206695158398   124.75050383   179.55377552
 O     63  60  40     1.360455064638   112.91815681   359.55477897
 H     65  63  60     0.967649047331   105.72247839   179.70840538
 C     60  40  38     1.369054192536    25.61062304   178.73824448
 H     67  60  40     1.085208708913   114.49186739   179.61227350
 C     55  53  51     1.453997636415   119.81598583   350.92648753
 H     69  55  53     1.099596914146   112.66768316   298.42042434
 H     69  55  53     1.094615240210   111.19920101    59.90320604
 H     69  55  53     1.089280315162   109.04682700   178.25090967
 C     55  53  51     1.453867205490   119.80717181   187.26645206
 H     73  55  53     1.094576560822   111.12286443   300.84476417
 H     73  55  53     1.099696191500   112.71986236    62.31269121
 H     73  55  53     1.089273144349   109.02750414   182.51119735

---------------------------
INTERNAL COORDINATES (A.U.)
---------------------------
 N      0   0   0     0.000000000000     0.00000000     0.00000000
 N      1   0   0     5.207241623541     0.00000000     0.00000000
 C      1   2   0     2.553563989028    60.48768290     0.00000000
 C      2   1   3     2.550892052544    60.58516195     2.47035232
 C      1   2   3     2.492778332498    60.11874009   180.32010199
 C      2   1   3     2.493038798805    60.14356013   183.02117915
 C      3   1   2     2.703823576055   119.35740922   179.50948284
 C      4   2   1     2.713548952830   119.43176401   179.26184299
 C      7   3   1     2.634737053310   116.00697710   177.28400284
 C      9   7   3     2.636836202150   122.91412055     0.54655031
 H      9   7   3     2.045614504537   119.51243179   181.27849835
 H     10   9   7     2.045042244225   117.61777582   178.66760215
 C      5   1   2     2.813183970065   116.06528449   175.54504218
 C     13   5   1     2.648392647120   119.50446576    43.42144329
 C     13   5   1     2.647658381157   121.47688257   226.67057724
 C     14  13   5     2.629527732634   120.51720522   182.10009269
 H     14  13   5     2.046739236886   119.07950896     2.19408460
 C     15  13   5     2.629580948142   120.41329571   176.95417106
 H     15  13   5     2.047148639022   119.95290853   357.76098347
 C     18  15  13     2.634030535931   120.25528196     0.71977002
 H     16  14  13     2.049220382461   119.72673942   180.76985323
 H     18  15  13     2.048996989782   119.62941822   180.76982390
 H     20  18  15     2.049217271487   120.12115985   179.48421402
 C      6   2   1     2.813220737645   116.12626470   175.65887396
 C     24   6   2     2.648075262450   121.53054096   225.62655109
 C     24   6   2     2.648542032598   119.48460692    42.31731052
 C     25  24   6     2.629663948889   120.45997889   177.03437027
 H     25  24   6     2.047063179941   119.96438461   357.84180865
 C     26  24   6     2.629479145098   120.50663653   182.08292262
 H     26  24   6     2.046432864095   119.11975435     1.96889880
 C     27  25  24     2.633940634966   120.23413472     0.63505860
 H     27  25  24     2.049019241663   119.61398524   180.68918385
 H     29  26  24     2.049215344292   119.67306026   180.67046437
 H     31  27  25     2.049347462083   120.11693473   179.46627584
 C      7   3   1     2.757478624614   123.48863157   357.63803661
 C     35   7   3     2.633780727672   125.75679546   191.61316838
 S     35   7   3     3.292899046929   124.35866249    14.04814030
 C     36  35   7     2.642125018434   114.66231074   182.98801293
 H     36  35   7     2.042957397849   122.86481759     3.94075864
 C     38  36  35     2.627059794872   112.97696670   359.90058787
 H     38  36  35     2.041393631095   123.46150279   180.40714961
 C      8   4   2     2.751554800226   123.73886462   356.95370154
 C     42   8   4     2.616504949526   126.03024086   191.99205054
 S     42   8   4     3.325764811188   124.66059622    13.90673693
 C     43  42   8     2.659930160712   114.50841219   182.84546596
 H     43  42   8     2.044289571117   122.99232664     3.07287338
 C     45  43  42     2.608530620372   113.48666349     0.00000000
 H     45  43  42     2.044922044974   123.23888520   178.44789372
 C     47  45  43     2.761611193231   128.30125005   180.31840965
 C     49  47  45     2.655653921280   121.05012561    24.03212332
 C     50  49  47     2.616720827017   122.01627935   180.63811194
 H     50  49  47     2.048946213294   119.49956798     1.87113786
 C     51  50  49     2.672531170022   121.21559024   359.29708897
 H     51  50  49     2.043297047281   118.43950777   180.04255446
 N     53  51  50     2.612733226646   121.53859839   181.48368815
 C     49  47  45     2.654551686261   122.26630255   204.60842341
 H     56  49  47     2.049698061835   119.53901341     1.09888266
 C     56  49  47     2.618095302099   122.01778677   179.60915072
 H     58  56  49     2.043226640342   118.40557294   180.95273225
 C     40  38  36     4.784440132079   107.43569540   179.64442128
 C     60  40  38     2.690340542910    97.44986402   358.94869543
 N     61  60  40     2.185211015541   177.90021856     1.82439361
 C     60  40  38     2.798368561282   147.32749201   179.22759090
 O     63  60  40     2.280323376500   124.75050383   179.55377552
 O     63  60  40     2.570887489673   112.91815681   359.55477897
 H     65  63  60     1.828591693205   105.72247839   179.70840538
 C     60  40  38     2.587137486389    25.61062304   178.73824448
 H     67  60  40     2.050747257991   114.49186739   179.61227350
 C     55  53  51     2.747657332193   119.81598583   350.92648753
 H     69  55  53     2.077937025441   112.66768316   298.42042434
 H     69  55  53     2.068523026013   111.19920101    59.90320604
 H     69  55  53     2.058441478728   109.04682700   178.25090967
 C     55  53  51     2.747410853466   119.80717181   187.26645206
 H     73  55  53     2.068449932562   111.12286443   300.84476417
 H     73  55  53     2.078124632452   112.71986236    62.31269121
 H     73  55  53     2.058427927855   109.02750414   182.51119735

---------------------
BASIS SET INFORMATION
---------------------
There are 5 groups of distinct atoms

 Group   1 Type N   : 11s5p1d contracted to 4s3p1d pattern {6311/311/1}
 Group   2 Type C   : 11s5p1d contracted to 4s3p1d pattern {6311/311/1}
 Group   3 Type H   : 5s1p contracted to 3s1p pattern {311/1}
 Group   4 Type S   : 13s9p1d contracted to 6s5p1d pattern {631111/42111/1}
 Group   5 Type O   : 11s5p1d contracted to 4s3p1d pattern {6311/311/1}

Atom   0N    basis set group =>   1
Atom   1N    basis set group =>   1
Atom   2C    basis set group =>   2
Atom   3C    basis set group =>   2
Atom   4C    basis set group =>   2
Atom   5C    basis set group =>   2
Atom   6C    basis set group =>   2
Atom   7C    basis set group =>   2
Atom   8C    basis set group =>   2
Atom   9C    basis set group =>   2
Atom  10H    basis set group =>   3
Atom  11H    basis set group =>   3
Atom  12C    basis set group =>   2
Atom  13C    basis set group =>   2
Atom  14C    basis set group =>   2
Atom  15C    basis set group =>   2
Atom  16H    basis set group =>   3
Atom  17C    basis set group =>   2
Atom  18H    basis set group =>   3
Atom  19C    basis set group =>   2
Atom  20H    basis set group =>   3
Atom  21H    basis set group =>   3
Atom  22H    basis set group =>   3
Atom  23C    basis set group =>   2
Atom  24C    basis set group =>   2
Atom  25C    basis set group =>   2
Atom  26C    basis set group =>   2
Atom  27H    basis set group =>   3
Atom  28C    basis set group =>   2
Atom  29H    basis set group =>   3
Atom  30C    basis set group =>   2
Atom  31H    basis set group =>   3
Atom  32H    basis set group =>   3
Atom  33H    basis set group =>   3
Atom  34C    basis set group =>   2
Atom  35C    basis set group =>   2
Atom  36S    basis set group =>   4
Atom  37C    basis set group =>   2
Atom  38H    basis set group =>   3
Atom  39C    basis set group =>   2
Atom  40H    basis set group =>   3
Atom  41C    basis set group =>   2
Atom  42C    basis set group =>   2
Atom  43S    basis set group =>   4
Atom  44C    basis set group =>   2
Atom  45H    basis set group =>   3
Atom  46C    basis set group =>   2
Atom  47H    basis set group =>   3
Atom  48C    basis set group =>   2
Atom  49C    basis set group =>   2
Atom  50C    basis set group =>   2
Atom  51H    basis set group =>   3
Atom  52C    basis set group =>   2
Atom  53H    basis set group =>   3
Atom  54N    basis set group =>   1
Atom  55C    basis set group =>   2
Atom  56H    basis set group =>   3
Atom  57C    basis set group =>   2
Atom  58H    basis set group =>   3
Atom  59C    basis set group =>   2
Atom  60C    basis set group =>   2
Atom  61N    basis set group =>   1
Atom  62C    basis set group =>   2
Atom  63O    basis set group =>   5
Atom  64O    basis set group =>   5
Atom  65H    basis set group =>   3
Atom  66C    basis set group =>   2
Atom  67H    basis set group =>   3
Atom  68C    basis set group =>   2
Atom  69H    basis set group =>   3
Atom  70H    basis set group =>   3
Atom  71H    basis set group =>   3
Atom  72C    basis set group =>   2
Atom  73H    basis set group =>   3
Atom  74H    basis set group =>   3
Atom  75H    basis set group =>   3
---------------------------------
AUXILIARY/J BASIS SET INFORMATION
---------------------------------
There are 5 groups of distinct atoms

 Group   1 Type N   : 12s5p4d2f1g contracted to 6s4p3d1f1g pattern {711111/2111/211/2/1}
 Group   2 Type C   : 12s5p4d2f1g contracted to 6s4p3d1f1g pattern {711111/2111/211/2/1}
 Group   3 Type H   : 5s2p1d contracted to 3s1p1d pattern {311/2/1}
 Group   4 Type S   : 14s5p5d2f1g contracted to 8s4p3d1f1g pattern {71111111/2111/311/2/1}
 Group   5 Type O   : 12s5p4d2f1g contracted to 6s4p3d1f1g pattern {711111/2111/211/2/1}

Atom   0N    basis set group =>   1
Atom   1N    basis set group =>   1
Atom   2C    basis set group =>   2
Atom   3C    basis set group =>   2
Atom   4C    basis set group =>   2
Atom   5C    basis set group =>   2
Atom   6C    basis set group =>   2
Atom   7C    basis set group =>   2
Atom   8C    basis set group =>   2
Atom   9C    basis set group =>   2
Atom  10H    basis set group =>   3
Atom  11H    basis set group =>   3
Atom  12C    basis set group =>   2
Atom  13C    basis set group =>   2
Atom  14C    basis set group =>   2
Atom  15C    basis set group =>   2
Atom  16H    basis set group =>   3
Atom  17C    basis set group =>   2
Atom  18H    basis set group =>   3
Atom  19C    basis set group =>   2
Atom  20H    basis set group =>   3
Atom  21H    basis set group =>   3
Atom  22H    basis set group =>   3
Atom  23C    basis set group =>   2
Atom  24C    basis set group =>   2
Atom  25C    basis set group =>   2
Atom  26C    basis set group =>   2
Atom  27H    basis set group =>   3
Atom  28C    basis set group =>   2
Atom  29H    basis set group =>   3
Atom  30C    basis set group =>   2
Atom  31H    basis set group =>   3
Atom  32H    basis set group =>   3
Atom  33H    basis set group =>   3
Atom  34C    basis set group =>   2
Atom  35C    basis set group =>   2
Atom  36S    basis set group =>   4
Atom  37C    basis set group =>   2
Atom  38H    basis set group =>   3
Atom  39C    basis set group =>   2
Atom  40H    basis set group =>   3
Atom  41C    basis set group =>   2
Atom  42C    basis set group =>   2
Atom  43S    basis set group =>   4
Atom  44C    basis set group =>   2
Atom  45H    basis set group =>   3
Atom  46C    basis set group =>   2
Atom  47H    basis set group =>   3
Atom  48C    basis set group =>   2
Atom  49C    basis set group =>   2
Atom  50C    basis set group =>   2
Atom  51H    basis set group =>   3
Atom  52C    basis set group =>   2
Atom  53H    basis set group =>   3
Atom  54N    basis set group =>   1
Atom  55C    basis set group =>   2
Atom  56H    basis set group =>   3
Atom  57C    basis set group =>   2
Atom  58H    basis set group =>   3
Atom  59C    basis set group =>   2
Atom  60C    basis set group =>   2
Atom  61N    basis set group =>   1
Atom  62C    basis set group =>   2
Atom  63O    basis set group =>   5
Atom  64O    basis set group =>   5
Atom  65H    basis set group =>   3
Atom  66C    basis set group =>   2
Atom  67H    basis set group =>   3
Atom  68C    basis set group =>   2
Atom  69H    basis set group =>   3
Atom  70H    basis set group =>   3
Atom  71H    basis set group =>   3
Atom  72C    basis set group =>   2
Atom  73H    basis set group =>   3
Atom  74H    basis set group =>   3
Atom  75H    basis set group =>   3
------------------------------------------------------------------------------
                             ORCA STARTUP CALCULATIONS
                           -- RI-GTO INTEGRALS CHOSEN --
------------------------------------------------------------------------------
------------------------------------------------------------------------------
                   ___                                                        
                  /   \      - P O W E R E D   B Y -                         
                 /     \                                                     
                 |  |  |   _    _      __       _____    __    __             
                 |  |  |  | |  | |    /  \     |  _  \  |  |  /  |          
                  \  \/   | |  | |   /    \    | | | |  |  | /  /          
                 / \  \   | |__| |  /  /\  \   | |_| |  |  |/  /          
                |  |  |   |  __  | /  /__\  \  |    /   |      \           
                |  |  |   | |  | | |   __   |  |    \   |  |\   \          
                \     /   | |  | | |  |  |  |  | |\  \  |  | \   \       
                 \___/    |_|  |_| |__|  |__|  |_| \__\ |__|  \__/        
                                                                              
                      - O R C A' S   B I G   F R I E N D -                    
                                      &                                       
                       - I N T E G R A L  F E E D E R -                       
                                                                              
 v1 FN, 2020, v2 2021, v3 2022-2024                                           
------------------------------------------------------------------------------


----------------------
SHARK INTEGRAL PACKAGE
----------------------

Number of atoms                             ...     76
Number of basis functions                   ...   1048
Number of shells                            ...    504
Maximum angular momentum                    ...      2
Integral batch strategy                     ... SHARK/LIBINT Hybrid
RI-J (if used) integral strategy            ... SPLIT-RIJ (Revised 2003 algorithm where possible)
Printlevel                                  ...      1
Contraction scheme used                     ... SEGMENTED contraction
Prescreening option                         ... SCHWARTZ
   Thresh                                   ... 2.500e-11
   Tcut                                     ... 2.500e-12
   Tpresel                                  ... 2.500e-12 
Coulomb Range Separation                    ... NOT USED
Exchange Range Separation                   ... NOT USED
Multipole approximations                    ... NOT USED
Finite Nucleus Model                        ... NOT USED
CABS basis                                  ... NOT available
Auxiliary Coulomb fitting basis             ... AVAILABLE
   # of basis functions in Aux-J            ...   2664
   # of shells in Aux-J                     ...    864
   Maximum angular momentum in Aux-J        ...      4
Auxiliary J/K fitting basis                 ... NOT available
Auxiliary Correlation fitting basis         ... NOT available
Auxiliary 'external' fitting basis          ... NOT available

Checking pre-screening integrals            ... done (  0.0 sec) Dimension = 504
Check shell pair data                       ... done (  0.0 sec)
Shell pair information
Shell pair cut-off parameter TPreSel        ...   2.5e-12
Total number of shell pairs                 ...    127260
Shell pairs after pre-screening             ...     47265
Total number of primitive shell pairs       ...    497606
Primitive shell pairs kept                  ...    106218
          la=0 lb=0:  13929 shell pairs
          la=1 lb=0:  18813 shell pairs
          la=1 lb=1:   6453 shell pairs
          la=2 lb=0:   4534 shell pairs
          la=2 lb=1:   3128 shell pairs
          la=2 lb=2:    408 shell pairs

Calculating one electron integrals          ... done (  0.2 sec)
Calculating RI/J V-Matrix + Cholesky decomp.... done (  0.2 sec)
Calculating Nuclear repulsion               ... done (  0.0 sec) ENN=   5647.877576610078 Eh

Diagonalization of the overlap matrix:
Smallest eigenvalue                        ... 9.002e-05
Time for diagonalization                   ...    0.111 sec
Threshold for overlap eigenvalues          ... 1.000e-07
Number of eigenvalues below threshold      ... 0
Time for construction of square roots      ...    0.066 sec
Total time needed                          ...    0.178 sec

-------------------
DFT GRID GENERATION
-------------------

General Integration Accuracy     IntAcc      ... 4.388
Radial Grid Type                 RadialGrid  ... OptM3 with GC (2021)
Angular Grid (max. ang.)         AngularGrid ... 4 (Lebedev-302)
Angular grid pruning method      GridPruning ... 4 (adaptive)
Weight generation scheme         WeightScheme... mBecke (2022)
Basis function cutoff            BFCut       ... 1.0000e-11
Integration weight cutoff        WCut        ... 1.0000e-14
Partially contracted basis set               ... off
Rotationally invariant grid construction     ... off
Angular grids for H and He will be reduced by one unit

Total number of grid points                  ...   377867
Total number of batches                      ...     5946
Average number of points per batch           ...       63
Average number of grid points per atom       ...     4972

--------------------
COSX GRID GENERATION
--------------------

GRIDX 1
-------
General Integration Accuracy     IntAcc      ... 3.816
Radial Grid Type                 RadialGrid  ... OptM3 with GC (2021)
Angular Grid (max. ang.)         AngularGrid ... 1 (Lebedev-50)
Angular grid pruning method      GridPruning ... 4 (adaptive)
Weight generation scheme         WeightScheme... mBecke (2022)
Basis function cutoff            BFCut       ... 1.0000e-11
Integration weight cutoff        WCut        ... 1.0000e-14
Partially contracted basis set               ... on
Rotationally invariant grid construction     ... off
Angular grids for H and He will be reduced by one unit

Total number of grid points                  ...    49914
Total number of batches                      ...      430
Average number of points per batch           ...      116
Average number of grid points per atom       ...      657
UseSFitting                                  ... on

GRIDX 2
-------
General Integration Accuracy     IntAcc      ... 4.020
Radial Grid Type                 RadialGrid  ... OptM3 with GC (2021)
Angular Grid (max. ang.)         AngularGrid ... 2 (Lebedev-110)
Angular grid pruning method      GridPruning ... 4 (adaptive)
Weight generation scheme         WeightScheme... mBecke (2022)
Basis function cutoff            BFCut       ... 1.0000e-11
Integration weight cutoff        WCut        ... 1.0000e-14
Partially contracted basis set               ... on
Rotationally invariant grid construction     ... off
Angular grids for H and He will be reduced by one unit

Total number of grid points                  ...   104511
Total number of batches                      ...      854
Average number of points per batch           ...      122
Average number of grid points per atom       ...     1375
UseSFitting                                  ... on

GRIDX 3
-------
General Integration Accuracy     IntAcc      ... 4.338
Radial Grid Type                 RadialGrid  ... OptM3 with GC (2021)
Angular Grid (max. ang.)         AngularGrid ... 3 (Lebedev-194)
Angular grid pruning method      GridPruning ... 4 (adaptive)
Weight generation scheme         WeightScheme... mBecke (2022)
Basis function cutoff            BFCut       ... 1.0000e-11
Integration weight cutoff        WCut        ... 1.0000e-14
Partially contracted basis set               ... on
Rotationally invariant grid construction     ... off
Angular grids for H and He will be reduced by one unit

Total number of grid points                  ...   229465
Total number of batches                      ...     1830
Average number of points per batch           ...      125
Average number of grid points per atom       ...     3019
UseSFitting                                  ... on
Initializing property integral containers    ... done (  0.0 sec)

SHARK setup successfully completed in   9.2 seconds

Maximum memory used throughout the entire STARTUP-calculation: 199.6 MB
-------------------------------------------------------------------------------
                                 ORCA GUESS
                   Start orbitals & Density for SCF / CASSCF
-------------------------------------------------------------------------------

------------
SCF SETTINGS
------------
Hamiltonian:
 Density Functional     Method          .... DFT(GTOs)
 Exchange Functional    Exchange        .... M062X
 Correlation Functional Correlation     .... M062X
 Gradients option       PostSCFGGA      .... off
 Hybrid DFT is turned on
   Fraction HF Exchange ScalHFX         ....  0.540000
   Scaling of DF-GGA-X  ScalDFX         ....  0.460000
   Scaling of DF-GGA-C  ScalDFC         ....  1.000000
   Scaling of DF-LDA-C  ScalLDAC        ....  1.000000
   Perturbative correction              ....  0.000000
 RI-approximation to the Coulomb term is turned on
   Number of AuxJ basis functions       .... 2664
   RIJ-COSX (HFX calculated with COS-X)).... on


General Settings:
 Integral files         IntName         .... QX-DMA
 Hartree-Fock type      HFTyp           .... RHF
 Total Charge           Charge          ....    0
 Multiplicity           Mult            ....    1
 Number of Electrons    NEL             ....  344
 Basis Dimension        Dim             .... 1048
 Nuclear Repulsion      ENuc            ....   5647.8775766101 Eh

Convergence Acceleration:
 AO-DIIS                CNVDIIS         .... on
   Start iteration      DIISMaxIt       ....    12
   Startup error        DIISStart       ....  0.200000
   # of expansion vecs  DIISMaxEq       ....     5
   Bias factor          DIISBfac        ....   1.050
   Max. coefficient     DIISMaxC        ....  10.000
 MO-DIIS                CNVKDIIS        .... off
 Trust-Rad. Augm. Hess. CNVTRAH         .... auto
   Auto Start mean grad. ratio tolernc. ....  1.125000
   Auto Start start iteration           ....    50
   Auto Start num. interpolation iter.  ....    10
   Max. Number of Micro iterations      ....    24
   Max. Number of Macro iterations      .... Maxiter - #DIIS iter
   Number of Davidson start vectors     ....     2
   Converg. threshold    (grad. norm)   ....   1.000e-05
   Grad. Scal. Fac. for Micro threshold ....   0.100
   Minimum threshold for Micro iter.    ....   1.000e-02
   NR start threshold (gradient norm)   ....   1.000e-04
   Initial trust radius                 ....   0.400
   Minimum AH scaling param. (alpha)    ....   1.000
   Maximum AH scaling param. (alpha)    .... 1000.000
   Quad. conv. algorithm                .... NR
   White noise on init. David. guess    .... on
   Maximum white noise                  ....   0.010
   Pseudo random numbers                .... off
   Inactive MOs                         .... canonical
   Orbital update algorithm             .... Taylor
   Preconditioner                       .... Diag
   Full preconditioner red. dimension   ....   250
 SOSCF                  CNVSOSCF        .... on
   Start iteration      SOSCFMaxIt      ....   150
   Startup grad/error   SOSCFStart      ....  0.003300
   Hessian update       SOSCFHessUp     .... L-BFGS
 Level Shifting         CNVShift        .... on
   Level shift para.    LevelShift      ....    0.2500
   Turn off err/grad.   ShiftErr        ....    0.0010
 Zerner damping         CNVZerner       .... off
 Static damping         CNVDamp         .... on
   Fraction old density DampFac         ....    0.7000
   Max. Damping (<1)    DampMax         ....    0.9800
   Min. Damping (>=0)   DampMin         ....    0.0000
   Turn off err/grad.   DampErr         ....    0.1000

SCF Procedure:
 Maximum # iterations   MaxIter         ....   125
 SCF integral mode      SCFMode         .... Direct
   Integral package                     .... SHARK and LIBINT hybrid scheme
 Reset frequency        DirectResetFreq ....    20
 Integral Threshold     Thresh          ....  2.500e-11 Eh
 Primitive CutOff       TCut            ....  2.500e-12 Eh

Convergence Tolerance:
 Convergence Check Mode ConvCheckMode   .... Total+1el-Energy
 Convergence forced     ConvForced      .... 1
 Energy Change          TolE            ....  1.000e-08 Eh
 1-El. energy change                    ....  1.000e-05 Eh
 Orbital Gradient       TolG            ....  1.000e-05
 Orbital Rotation angle TolX            ....  1.000e-05
 DIIS Error             TolErr          ....  5.000e-07

------------------------------
INITIAL GUESS: MODEL POTENTIAL
------------------------------
Loading Hartree-Fock densities                     ... done
Calculating cut-offs                               ... done
Initializing the effective Hamiltonian             ... done
Setting up the integral package (SHARK)            ... done
Starting the Coulomb interaction                   ... done (   3.1 sec)
Making the grid                                    ... done (   1.0 sec)
Mapping shells                                     ... done
Starting the XC term evaluation                    ... done (   0.8 sec)
  promolecular density results
     # of electrons  =    343.987979923
     EX              =   -305.140801571
     EC              =    -11.752447150
     EX+EC           =   -316.893248722
Transforming the Hamiltonian                       ... done (   0.1 sec)
Diagonalizing the Hamiltonian                      ... done (   0.1 sec)
Back transforming the eigenvectors                 ... done (   0.0 sec)
Now organizing SCF variables                       ... done
                      ------------------
                      INITIAL GUESS DONE (   5.2 sec)
                      ------------------
             **** ENERGY FILE WAS UPDATED (QX-DMA.en.tmp) ****
Finished Guess after   5.5 sec
Maximum memory used throughout the entire GUESS-calculation: 128.8 MB

-------------------------------------------------------------------------------------------
                                      ORCA LEAN-SCF
                              memory conserving SCF solver
-------------------------------------------------------------------------------------------

--------------------
CPCM SOLVATION MODEL
--------------------
CPCM parameters:
  Epsilon                                         ...       7.5650
  Refrac                                          ...       1.4050
  Rsolv                                           ...       1.3000
  Surface type                                    ... GAUSSIAN VDW
  Discretization scheme                           ... Constant charge density
    Threshold for H atoms                         ...       5.0000 (charges/Ang^2)
    Threshold for non-H atoms                     ...       5.0000 (charges/Ang^2)
  Epsilon function type                           ...         CPCM
Solvent:                                          ... TETRAHYDROFURAN
Radii:
  Scheme                                          ... Element-dependent radii
  Radius for N  used is    3.5149 Bohr (=   1.8600 Ang.)
  Radius for C  used is    3.8550 Bohr (=   2.0400 Ang.)
  Radius for H  used is    2.4944 Bohr (=   1.3200 Ang.)
  Radius for S  used is    4.0818 Bohr (=   2.1600 Ang.)
  Radius for O  used is    3.4469 Bohr (=   1.8240 Ang.)
Calculating surface                               ...        done! (  0.0s)
Cavity surface points                             ...         6908
Cavity Volume                                     ...    5083.6184
Cavity Surface-area                               ...    2437.1551
Calculating surface distance matrix               ...        done! (  0.2s)
Performing Cholesky decomposition & store         ...        done! (  1.7s)
Overall time for CPCM initialization              ...                 1.9s

----------------------------------------D-I-I-S--------------------------------------------
Iteration    Energy (Eh)           Delta-E    RMSDP     MaxDP     DIISErr   Damp  Time(sec)
-------------------------------------------------------------------------------------------
               ***  Starting incremental Fock matrix formation  ***
    1    -2705.5984106817040811     0.00e+00  9.19e-04  1.11e-01  3.22e-01  0.700  82.2
    2    -2706.0517330005777694    -4.53e-01  7.06e-04  8.39e-02  1.52e-01  0.700  42.0
                               ***Turning on AO-DIIS***
    3    -2706.2685065281466450    -2.17e-01  3.57e-04  2.20e-02  5.72e-02  0.700  41.7
    4    -2706.3973600688723309    -1.29e-01  7.49e-04  5.87e-02  4.24e-02  0.000  39.0
    5    -2706.6736466750398904    -2.76e-01  9.09e-05  1.18e-02  8.34e-03  0.000  41.8
    6    -2706.6747072733696768    -1.06e-03  3.51e-05  2.76e-03  3.50e-03  0.000  35.9
                              *** Initializing SOSCF ***
---------------------------------------S-O-S-C-F--------------------------------------
Iteration    Energy (Eh)           Delta-E    RMSDP     MaxDP     MaxGrad    Time(sec)
--------------------------------------------------------------------------------------
    7    -2706.6749161532598009    -2.09e-04  1.99e-05  1.62e-03  1.32e-03    33.7
               *** Restarting incremental Fock matrix formation ***
    8    -2706.6752038572221863    -2.88e-04  2.83e-05  1.58e-03  7.26e-04    81.6
    9    -2706.6752547846799644    -5.09e-05  2.48e-05  1.67e-03  2.71e-04    55.8
   10    -2706.6752615563100335    -6.77e-06  1.26e-05  6.05e-04  3.59e-04    54.2
   11    -2706.6752704236469071    -8.87e-06  4.33e-06  4.97e-04  7.74e-05    50.6
   12    -2706.6752704383716264    -1.47e-08  2.32e-06  2.08e-04  1.06e-04    43.2
   13    -2706.6752710390037464    -6.01e-07  4.94e-07  6.68e-05  1.23e-05    39.9
   14    -2706.6752710936661970    -5.47e-08  2.40e-07  2.92e-05  1.75e-05    28.4
   15    -2706.6752710877181016     5.95e-09  1.06e-07  1.23e-05  3.02e-06    25.9
                 **** Energy Check signals convergence ****

               *****************************************************
               *                     SUCCESS                       *
               *           SCF CONVERGED AFTER  15 CYCLES          *
               *****************************************************

Recomputing exchange energy using gridx3       ... done (  128.836 sec)
Old exchange energy                            :   -167.650695947 Eh
New exchange energy                            :   -167.650719622 Eh
Exchange energy change after final integration :     -0.000023674 Eh
Total energy after final integration           :  -2706.675294762 Eh
             **** ENERGY FILE WAS UPDATED (QX-DMA.en.tmp) ****

----------------
TOTAL SCF ENERGY
----------------

Total Energy       :      -2706.67529476186974 Eh          -73652.37919 eV

Components:
Nuclear Repulsion  :       5647.87757661007799 Eh          153686.56213 eV
Electronic Energy  :      -8354.51379313311918 Eh         -227337.87795 eV
One Electron Energy:     -14933.52707222376375 Eh         -406361.93068 eV
Two Electron Energy:       6579.01327909064548 Eh          179024.05273 eV
CPCM Dielectric    :         -0.03905456467626 Eh              -1.06273 eV

Virial components:
Potential Energy   :      -5404.70801426358048 Eh         -147069.58194 eV
Kinetic Energy     :       2698.03271950171074 Eh           73417.20276 eV
Virial Ratio       :          2.00320328778732

DFT components:
N(Alpha)           :      172.000095339315 electrons
N(Beta)            :      172.000095339315 electrons
N(Total)           :      344.000190678631 electrons
E(XC)              :     -155.659927823053 Eh       

CPCM Solvation Model Properties:
Surface-charge          :         -0.04007467458458
Corrected charge        :          0.00000000000000
Outlying charge corr.   :          0.00005196339375 Eh               0.00141 eV
Free-energy (cav+disp)  :  This term is not implemented in the current solvation scheme

---------------
SCF CONVERGENCE
---------------

  Last Energy change         ...   -5.9481e-09  Tolerance :   1.0000e-08
  Last MAX-Density change    ...    1.2263e-05  Tolerance :   1.0000e-07
  Last RMS-Density change    ...    1.0571e-07  Tolerance :   5.0000e-09
  Last DIIS Error            ...    1.3218e-03  Tolerance :   5.0000e-07
  Last Orbital Gradient      ...    3.0214e-06  Tolerance :   1.0000e-05
  Last Orbital Rotation      ...    2.1904e-05  Tolerance :   1.0000e-05


----------------
ORBITAL ENERGIES
----------------

  NO   OCC          E(Eh)            E(eV) 
   0   2.0000     -89.941629     -2447.4361 
   1   2.0000     -89.925097     -2446.9863 
   2   2.0000     -19.671719      -535.2947 
   3   2.0000     -19.625270      -534.0307 
   4   2.0000     -14.778880      -402.1538 
   5   2.0000     -14.778125      -402.1332 
   6   2.0000     -14.766473      -401.8162 
   7   2.0000     -14.763432      -401.7334 
   8   2.0000     -10.697938      -291.1057 
   9   2.0000     -10.618753      -288.9510 
  10   2.0000     -10.616963      -288.9023 
  11   2.0000     -10.608197      -288.6637 
  12   2.0000     -10.607921      -288.6562 
  13   2.0000     -10.606508      -288.6178 
  14   2.0000     -10.605808      -288.5987 
  15   2.0000     -10.599032      -288.4143 
  16   2.0000     -10.595955      -288.3306 
  17   2.0000     -10.593630      -288.2673 
  18   2.0000     -10.590469      -288.1813 
  19   2.0000     -10.586835      -288.0824 
  20   2.0000     -10.584866      -288.0288 
  21   2.0000     -10.583817      -288.0003 
  22   2.0000     -10.581651      -287.9414 
  23   2.0000     -10.568462      -287.5825 
  24   2.0000     -10.567547      -287.5576 
  25   2.0000     -10.566799      -287.5372 
  26   2.0000     -10.566013      -287.5158 
  27   2.0000     -10.563152      -287.4380 
  28   2.0000     -10.562654      -287.4244 
  29   2.0000     -10.562564      -287.4220 
  30   2.0000     -10.560432      -287.3640 
  31   2.0000     -10.554135      -287.1926 
  32   2.0000     -10.553420      -287.1732 
  33   2.0000     -10.552953      -287.1605 
  34   2.0000     -10.552910      -287.1593 
  35   2.0000     -10.551809      -287.1293 
  36   2.0000     -10.551027      -287.1080 
  37   2.0000     -10.550833      -287.1028 
  38   2.0000     -10.550158      -287.0844 
  39   2.0000     -10.549542      -287.0676 
  40   2.0000     -10.549305      -287.0612 
  41   2.0000     -10.548867      -287.0493 
  42   2.0000     -10.548565      -287.0411 
  43   2.0000     -10.547706      -287.0177 
  44   2.0000     -10.547636      -287.0158 
  45   2.0000     -10.543008      -286.8898 
  46   2.0000     -10.539089      -286.7832 
  47   2.0000     -10.538922      -286.7786 
  48   2.0000      -8.305833      -226.0132 
  49   2.0000      -8.289519      -225.5693 
  50   2.0000      -6.226211      -169.4238 
  51   2.0000      -6.224082      -169.3659 
  52   2.0000      -6.222720      -169.3288 
  53   2.0000      -6.210012      -168.9830 
  54   2.0000      -6.207902      -168.9256 
  55   2.0000      -6.206387      -168.8844 
  56   2.0000      -1.244816       -33.8732 
  57   2.0000      -1.152249       -31.3543 
  58   2.0000      -1.117563       -30.4104 
  59   2.0000      -1.060358       -28.8538 
  60   2.0000      -1.043532       -28.3959 
  61   2.0000      -1.034439       -28.1485 
  62   2.0000      -1.010858       -27.5069 
  63   2.0000      -0.997651       -27.1475 
  64   2.0000      -0.984590       -26.7920 
  65   2.0000      -0.969403       -26.3788 
  66   2.0000      -0.968789       -26.3621 
  67   2.0000      -0.954606       -25.9762 
  68   2.0000      -0.943808       -25.6823 
  69   2.0000      -0.904868       -24.6227 
  70   2.0000      -0.903412       -24.5831 
  71   2.0000      -0.868967       -23.6458 
  72   2.0000      -0.862533       -23.4707 
  73   2.0000      -0.853378       -23.2216 
  74   2.0000      -0.851877       -23.1808 
  75   2.0000      -0.851231       -23.1632 
  76   2.0000      -0.850584       -23.1456 
  77   2.0000      -0.844576       -22.9821 
  78   2.0000      -0.838103       -22.8059 
  79   2.0000      -0.826863       -22.5001 
  80   2.0000      -0.812455       -22.1080 
  81   2.0000      -0.805881       -21.9291 
  82   2.0000      -0.774941       -21.0872 
  83   2.0000      -0.769748       -20.9459 
  84   2.0000      -0.759944       -20.6791 
  85   2.0000      -0.742300       -20.1990 
  86   2.0000      -0.734812       -19.9952 
  87   2.0000      -0.718434       -19.5496 
  88   2.0000      -0.699745       -19.0410 
  89   2.0000      -0.695737       -18.9320 
  90   2.0000      -0.694631       -18.9019 
  91   2.0000      -0.690302       -18.7841 
  92   2.0000      -0.685854       -18.6630 
  93   2.0000      -0.671077       -18.2609 
  94   2.0000      -0.655747       -17.8438 
  95   2.0000      -0.651644       -17.7321 
  96   2.0000      -0.641612       -17.4592 
  97   2.0000      -0.632712       -17.2170 
  98   2.0000      -0.624067       -16.9817 
  99   2.0000      -0.616595       -16.7784 
 100   2.0000      -0.612533       -16.6679 
 101   2.0000      -0.610206       -16.6045 
 102   2.0000      -0.601488       -16.3673 
 103   2.0000      -0.588472       -16.0131 
 104   2.0000      -0.584397       -15.9023 
 105   2.0000      -0.583986       -15.8911 
 106   2.0000      -0.580534       -15.7971 
 107   2.0000      -0.563368       -15.3300 
 108   2.0000      -0.553598       -15.0642 
 109   2.0000      -0.550423       -14.9778 
 110   2.0000      -0.546388       -14.8680 
 111   2.0000      -0.545472       -14.8430 
 112   2.0000      -0.538718       -14.6593 
 113   2.0000      -0.538247       -14.6465 
 114   2.0000      -0.534437       -14.5428 
 115   2.0000      -0.528661       -14.3856 
 116   2.0000      -0.522395       -14.2151 
 117   2.0000      -0.519444       -14.1348 
 118   2.0000      -0.518770       -14.1165 
 119   2.0000      -0.509377       -13.8609 
 120   2.0000      -0.505345       -13.7511 
 121   2.0000      -0.498683       -13.5699 
 122   2.0000      -0.497579       -13.5398 
 123   2.0000      -0.494938       -13.4680 
 124   2.0000      -0.494112       -13.4455 
 125   2.0000      -0.492350       -13.3975 
 126   2.0000      -0.491173       -13.3655 
 127   2.0000      -0.486899       -13.2492 
 128   2.0000      -0.479210       -13.0400 
 129   2.0000      -0.477800       -13.0016 
 130   2.0000      -0.474122       -12.9015 
 131   2.0000      -0.468578       -12.7507 
 132   2.0000      -0.467294       -12.7157 
 133   2.0000      -0.461133       -12.5481 
 134   2.0000      -0.459551       -12.5050 
 135   2.0000      -0.458450       -12.4751 
 136   2.0000      -0.456032       -12.4093 
 137   2.0000      -0.455610       -12.3978 
 138   2.0000      -0.451028       -12.2731 
 139   2.0000      -0.445985       -12.1359 
 140   2.0000      -0.442866       -12.0510 
 141   2.0000      -0.440828       -11.9955 
 142   2.0000      -0.436548       -11.8791 
 143   2.0000      -0.430069       -11.7028 
 144   2.0000      -0.426857       -11.6154 
 145   2.0000      -0.423644       -11.5279 
 146   2.0000      -0.419890       -11.4258 
 147   2.0000      -0.418523       -11.3886 
 148   2.0000      -0.414875       -11.2893 
 149   2.0000      -0.412191       -11.2163 
 150   2.0000      -0.409265       -11.1367 
 151   2.0000      -0.408273       -11.1097 
 152   2.0000      -0.407961       -11.1012 
 153   2.0000      -0.404586       -11.0094 
 154   2.0000      -0.394711       -10.7406 
 155   2.0000      -0.383849       -10.4451 
 156   2.0000      -0.377874       -10.2825 
 157   2.0000      -0.374292       -10.1850 
 158   2.0000      -0.365722        -9.9518 
 159   2.0000      -0.342974        -9.3328 
 160   2.0000      -0.341558        -9.2943 
 161   2.0000      -0.327785        -8.9195 
 162   2.0000      -0.324482        -8.8296 
 163   2.0000      -0.319676        -8.6988 
 164   2.0000      -0.316692        -8.6176 
 165   2.0000      -0.314624        -8.5613 
 166   2.0000      -0.312884        -8.5140 
 167   2.0000      -0.308382        -8.3915 
 168   2.0000      -0.297194        -8.0871 
 169   2.0000      -0.287864        -7.8332 
 170   2.0000      -0.262139        -7.1332 
 171   2.0000      -0.228189        -6.2093 
 172   0.0000      -0.090154        -2.4532 
 173   0.0000      -0.057685        -1.5697 
 174   0.0000      -0.031607        -0.8601 
 175   0.0000      -0.018267        -0.4971 
 176   0.0000       0.007873         0.2142 
 177   0.0000       0.009499         0.2585 
 178   0.0000       0.019370         0.5271 
 179   0.0000       0.022264         0.6058 
 180   0.0000       0.025308         0.6887 
 181   0.0000       0.028597         0.7782 
 182   0.0000       0.040667         1.1066 
*Only the first 10 virtual orbitals were printed.

                    ********************************
                    * MULLIKEN POPULATION ANALYSIS *
                    ********************************

-----------------------
MULLIKEN ATOMIC CHARGES
-----------------------
   0 N :   -0.433328
   1 N :   -0.419962
   2 C :    0.195697
   3 C :    0.177951
   4 C :    0.186509
   5 C :    0.178464
   6 C :   -0.044468
   7 C :   -0.001992
   8 C :   -0.066320
   9 C :   -0.086341
  10 H :    0.163176
  11 H :    0.161525
  12 C :   -0.176304
  13 C :   -0.077014
  14 C :   -0.070991
  15 C :   -0.148346
  16 H :    0.160920
  17 C :   -0.143893
  18 H :    0.165594
  19 C :   -0.131609
  20 H :    0.154273
  21 H :    0.154516
  22 H :    0.155232
  23 C :   -0.175037
  24 C :   -0.072253
  25 C :   -0.074905
  26 C :   -0.145219
  27 H :    0.165432
  28 C :   -0.148988
  29 H :    0.162403
  30 C :   -0.132101
  31 H :    0.153891
  32 H :    0.153978
  33 H :    0.154589
  34 C :   -0.272812
  35 C :   -0.079355
  36 S :    0.420505
  37 C :   -0.027126
  38 H :    0.170564
  39 C :   -0.383920
  40 H :    0.177498
  41 C :   -0.319035
  42 C :   -0.074405
  43 S :    0.379549
  44 C :   -0.106304
  45 H :    0.162164
  46 C :   -0.336099
  47 H :    0.159733
  48 C :   -0.032440
  49 C :   -0.084073
  50 C :   -0.195343
  51 H :    0.151653
  52 C :    0.253780
  53 H :    0.163618
  54 N :   -0.513603
  55 C :   -0.141284
  56 H :    0.158121
  57 C :   -0.194816
  58 H :    0.164087
  59 C :   -0.229660
  60 C :    0.111308
  61 N :   -0.326910
  62 C :    0.516732
  63 O :   -0.399571
  64 O :   -0.398830
  65 H :    0.317519
  66 C :    0.108505
  67 H :    0.187489
  68 C :   -0.265864
  69 H :    0.156778
  70 H :    0.158006
  71 H :    0.159932
  72 C :   -0.266257
  73 H :    0.158442
  74 H :    0.156780
  75 H :    0.159866
Sum of atomic charges:   -0.0000000

--------------------------------
MULLIKEN REDUCED ORBITAL CHARGES
--------------------------------
  0 N s       :     3.675843  s :     3.675843
      pz      :     1.111975  p :     3.721598
      px      :     1.095930
      py      :     1.513694
      dz2     :     0.003842  d :     0.035887
      dxz     :     0.006654
      dyz     :     0.004816
      dx2y2   :     0.007296
      dxy     :     0.013278

  1 N s       :     3.675710  s :     3.675710
      pz      :     1.101713  p :     3.708134
      px      :     1.095013
      py      :     1.511408
      dz2     :     0.003855  d :     0.036118
      dxz     :     0.006319
      dyz     :     0.005316
      dx2y2   :     0.007701
      dxy     :     0.012927

  2 C s       :     3.033769  s :     3.033769
      pz      :     0.969210  p :     2.681146
      px      :     0.869912
      py      :     0.842024
      dz2     :     0.005183  d :     0.089388
      dxz     :     0.014699
      dyz     :     0.010684
      dx2y2   :     0.034264
      dxy     :     0.024558

  3 C s       :     3.035673  s :     3.035673
      pz      :     0.982904  p :     2.697678
      px      :     0.785524
      py      :     0.929250
      dz2     :     0.005162  d :     0.088698
      dxz     :     0.014973
      dyz     :     0.009332
      dx2y2   :     0.027874
      dxy     :     0.031356

  4 C s       :     3.045459  s :     3.045459
      pz      :     0.914398  p :     2.678015
      px      :     0.846680
      py      :     0.916937
      dz2     :     0.005059  d :     0.090017
      dxz     :     0.015758
      dyz     :     0.008846
      dx2y2   :     0.027741
      dxy     :     0.032613

  5 C s       :     3.044778  s :     3.044778
      pz      :     0.923921  p :     2.686952
      px      :     0.890240
      py      :     0.872790
      dz2     :     0.005005  d :     0.089806
      dxz     :     0.013894
      dyz     :     0.010342
      dx2y2   :     0.036156
      dxy     :     0.024408

  6 C s       :     3.066418  s :     3.066418
      pz      :     1.012107  p :     2.912933
      px      :     1.005216
      py      :     0.895610
      dz2     :     0.004288  d :     0.065118
      dxz     :     0.009477
      dyz     :     0.010379
      dx2y2   :     0.022067
      dxy     :     0.018907

  7 C s       :     3.068446  s :     3.068446
      pz      :     0.958557  p :     2.866399
      px      :     1.014432
      py      :     0.893410
      dz2     :     0.004046  d :     0.067147
      dxz     :     0.009738
      dyz     :     0.012367
      dx2y2   :     0.018610
      dxy     :     0.022386

  8 C s       :     3.158844  s :     3.158844
      pz      :     0.945506  p :     2.852846
      px      :     0.989749
      py      :     0.917590
      dz2     :     0.003630  d :     0.054631
      dxz     :     0.004237
      dyz     :     0.011153
      dx2y2   :     0.018457
      dxy     :     0.017154

  9 C s       :     3.157365  s :     3.157365
      pz      :     0.975386  p :     2.875620
      px      :     0.946091
      py      :     0.954143
      dz2     :     0.003735  d :     0.053356
      dxz     :     0.006354
      dyz     :     0.007652
      dx2y2   :     0.015089
      dxy     :     0.020525

 10 H s       :     0.813147  s :     0.813147
      pz      :     0.004407  p :     0.023678
      px      :     0.014812
      py      :     0.004458

 11 H s       :     0.814789  s :     0.814789
      pz      :     0.004618  p :     0.023686
      px      :     0.010665
      py      :     0.008403

 12 C s       :     3.134025  s :     3.134025
      pz      :     0.995105  p :     2.977871
      px      :     0.983284
      py      :     0.999482
      dz2     :     0.012027  d :     0.064407
      dxz     :     0.009690
      dyz     :     0.012342
      dx2y2   :     0.012359
      dxy     :     0.017989

 13 C s       :     3.177778  s :     3.177778
      pz      :     0.965297  p :     2.845281
      px      :     0.986509
      py      :     0.893475
      dz2     :     0.006319  d :     0.053954
      dxz     :     0.009285
      dyz     :     0.010922
      dx2y2   :     0.015246
      dxy     :     0.012182

 14 C s       :     3.171990  s :     3.171990
      pz      :     0.935514  p :     2.844816
      px      :     0.912549
      py      :     0.996753
      dz2     :     0.007896  d :     0.054185
      dxz     :     0.009158
      dyz     :     0.011257
      dx2y2   :     0.015100
      dxy     :     0.010773

 15 C s       :     3.194076  s :     3.194076
      pz      :     0.973756  p :     2.899931
      px      :     0.940260
      py      :     0.985914
      dz2     :     0.007766  d :     0.054339
      dxz     :     0.008987
      dyz     :     0.011331
      dx2y2   :     0.014706
[...]

STATE  2:  E=   0.121431 au      3.304 eV    26651.0 cm**-1 <S**2> =   0.000000 Mult 1
   168a -> 172a  :     0.041585 (c=  0.20392366)
   169a -> 172a  :     0.077982 (c=  0.27925226)
   170a -> 172a  :     0.519639 (c=  0.72085993)
   170a -> 173a  :     0.024987 (c=  0.15807128)
   171a -> 172a  :     0.021957 (c=  0.14817733)
   171a -> 173a  :     0.249392 (c= -0.49939154)

STATE  3:  E=   0.128594 au      3.499 eV    28223.2 cm**-1 <S**2> =   0.000000 Mult 1
   163a -> 172a  :     0.014308 (c=  0.11961737)
   170a -> 172a  :     0.210771 (c= -0.45909809)
   170a -> 173a  :     0.145041 (c=  0.38084199)
   171a -> 172a  :     0.106082 (c= -0.32570166)
   171a -> 173a  :     0.452145 (c= -0.67241729)

STATE  4:  E=   0.133988 au      3.646 eV    29406.9 cm**-1 <S**2> =   0.000000 Mult 1
   160a -> 172a  :     0.012916 (c=  0.11365005)
   160a -> 173a  :     0.011520 (c= -0.10732915)
   161a -> 172a  :     0.144624 (c= -0.38029466)
   161a -> 173a  :     0.092276 (c=  0.30376995)
   161a -> 175a  :     0.019465 (c= -0.13951703)
   163a -> 172a  :     0.293001 (c=  0.54129575)
   163a -> 173a  :     0.168777 (c= -0.41082529)
   163a -> 175a  :     0.036737 (c=  0.19166897)
   167a -> 172a  :     0.039052 (c=  0.19761562)
   167a -> 173a  :     0.020860 (c= -0.14443094)
   171a -> 173a  :     0.028129 (c=  0.16771786)

STATE  5:  E=   0.137385 au      3.738 eV    30152.5 cm**-1 <S**2> =   0.000000 Mult 1
   159a -> 172a  :     0.023878 (c= -0.15452459)
   168a -> 172a  :     0.031297 (c= -0.17690917)
   169a -> 172a  :     0.514564 (c=  0.71733128)
   169a -> 173a  :     0.089476 (c= -0.29912461)
   170a -> 172a  :     0.037154 (c= -0.19275298)
   170a -> 174a  :     0.046571 (c=  0.21580344)
   171a -> 174a  :     0.155097 (c= -0.39382299)

STATE  6:  E=   0.145962 au      3.972 eV    32034.9 cm**-1 <S**2> =   0.000000 Mult 1
   169a -> 172a  :     0.048206 (c= -0.21955838)
   169a -> 173a  :     0.013277 (c=  0.11522409)
   170a -> 172a  :     0.013328 (c=  0.11544636)
   170a -> 173a  :     0.031503 (c=  0.17749167)
   170a -> 174a  :     0.029840 (c=  0.17274134)
   171a -> 172a  :     0.025084 (c=  0.15837950)
   171a -> 174a  :     0.357975 (c= -0.59831047)
   171a -> 175a  :     0.388084 (c=  0.62296385)
   171a -> 176a  :     0.014344 (c=  0.11976765)

STATE  7:  E=   0.152880 au      4.160 eV    33553.2 cm**-1 <S**2> =   0.000000 Mult 1
   159a -> 172a  :     0.010712 (c= -0.10350075)
   168a -> 172a  :     0.167992 (c= -0.40986834)
   169a -> 172a  :     0.124660 (c= -0.35307285)
   169a -> 173a  :     0.014359 (c=  0.11982957)
   170a -> 172a  :     0.023250 (c=  0.15247859)
   170a -> 173a  :     0.060813 (c= -0.24660231)
   170a -> 174a  :     0.033804 (c=  0.18385744)
   171a -> 173a  :     0.070471 (c= -0.26546452)
   171a -> 174a  :     0.152899 (c= -0.39102248)
   171a -> 175a  :     0.234007 (c= -0.48374251)
   171a -> 176a  :     0.012974 (c= -0.11390362)

STATE  8:  E=   0.155486 au      4.231 eV    34125.2 cm**-1 <S**2> =   0.000000 Mult 1
   161a -> 172a  :     0.013244 (c=  0.11508088)
   162a -> 172a  :     0.092348 (c= -0.30388889)
   163a -> 172a  :     0.034229 (c=  0.18501132)
   168a -> 172a  :     0.135296 (c=  0.36782636)
   168a -> 173a  :     0.033412 (c=  0.18278965)
   169a -> 173a  :     0.010470 (c=  0.10232237)
   170a -> 173a  :     0.278786 (c=  0.52800178)
   171a -> 173a  :     0.065109 (c=  0.25516421)
   171a -> 174a  :     0.044195 (c= -0.21022587)
   171a -> 175a  :     0.199923 (c= -0.44712769)

STATE  9:  E=   0.161197 au      4.386 eV    35378.6 cm**-1 <S**2> =   0.000000 Mult 1
   168a -> 172a  :     0.492125 (c=  0.70151639)
   168a -> 173a  :     0.042321 (c= -0.20572116)
   170a -> 172a  :     0.018912 (c= -0.13751947)
   170a -> 173a  :     0.240538 (c= -0.49044650)
   171a -> 172a  :     0.020000 (c= -0.14142283)
   171a -> 173a  :     0.033777 (c= -0.18378403)
   171a -> 174a  :     0.075769 (c= -0.27526203)

STATE 10:  E=   0.162734 au      4.428 eV    35715.9 cm**-1 <S**2> =   0.000000 Mult 1
   161a -> 172a  :     0.026194 (c=  0.16184637)
   163a -> 172a  :     0.011226 (c= -0.10595047)
   163a -> 173a  :     0.014975 (c=  0.12237334)
   165a -> 172a  :     0.037741 (c= -0.19427020)
   167a -> 172a  :     0.653047 (c=  0.80811305)
   167a -> 173a  :     0.102419 (c= -0.32002956)
   167a -> 175a  :     0.017251 (c= -0.13134437)
   168a -> 172a  :     0.014782 (c= -0.12158120)
   171a -> 176a  :     0.012690 (c=  0.11264872)
   171a -> 178a  :     0.012597 (c=  0.11223680)


-----------------------------
TD-DFT/TDA-EXCITATION SPECTRA
-----------------------------

Center of mass = ( -3.5402,  1.0752,  9.2283)
Generating CIS transition densities           ... done

----------------------------------------------------------------------------------------------------
                     ABSORPTION SPECTRUM VIA TRANSITION ELECTRIC DIPOLE MOMENTS    
----------------------------------------------------------------------------------------------------
     Transition      Energy     Energy  Wavelength fosc(D2)      D2        DX        DY        DZ   
                      (eV)      (cm-1)    (nm)                 (au**2)    (au)      (au)      (au)  
----------------------------------------------------------------------------------------------------
  0-1A  ->  1-1A    2.480473   20006.4   499.8   1.746740892  28.74325   1.27083  -5.19324   0.39817
  0-1A  ->  2-1A    3.304299   26651.0   375.2   0.321199627   3.96769   1.15547  -1.62137   0.06112
  0-1A  ->  3-1A    3.499228   28223.2   354.3   0.003815443   0.04451   0.20062  -0.04672   0.04554
  0-1A  ->  4-1A    3.645995   29406.9   340.1   0.006901504   0.07726   0.02171  -0.23051  -0.15381
  0-1A  ->  5-1A    3.738431   30152.5   331.6   0.148934352   1.62610   1.15475   0.54005  -0.03148
  0-1A  ->  6-1A    3.971826   32034.9   312.2   0.651129552   6.69143  -0.06646  -2.56498   0.32850
  0-1A  ->  7-1A    4.160065   33553.2   298.0   0.530175935   5.20190  -1.91699   1.21325  -0.23466
  0-1A  ->  8-1A    4.230979   34125.2   293.0   0.038105737   0.36761  -0.51411  -0.31925  -0.03717
  0-1A  ->  9-1A    4.386391   35378.6   282.7   0.034576497   0.32175  -0.51763  -0.23177   0.00944
  0-1A  -> 10-1A    4.428206   35715.9   280.0   0.030052233   0.27701  -0.50197   0.00822  -0.15802

----------------------------------------------------------------------------------------------------
                     ABSORPTION SPECTRUM VIA TRANSITION VELOCITY DIPOLE MOMENTS    
----------------------------------------------------------------------------------------------------
     Transition      Energy     Energy  Wavelength fosc(P2)      P2        PX        PY        PZ   
                      (eV)      (cm-1)    (nm)                 (au**2)    (au)      (au)      (au)  
----------------------------------------------------------------------------------------------------
  0-1A  ->  1-1A    2.480473   20006.4   499.8   0.800838395   0.10950  -0.09711   0.31449  -0.03415
  0-1A  ->  2-1A    3.304299   26651.0   375.2   0.188952661   0.03442  -0.14482   0.11595  -0.00107
  0-1A  ->  3-1A    3.499228   28223.2   354.3   0.004694893   0.00091  -0.02376   0.01573  -0.00968
  0-1A  ->  4-1A    3.645995   29406.9   340.1   0.009613031   0.00193   0.00108   0.02157  -0.03828
  0-1A  ->  5-1A    3.738431   30152.5   331.6   0.025103991   0.00517  -0.06231  -0.03578   0.00329
  0-1A  ->  6-1A    3.971826   32034.9   312.2   0.439800306   0.09629  -0.00799   0.30828  -0.03447
  0-1A  ->  7-1A    4.160065   33553.2   298.0   0.224036037   0.05138   0.14585  -0.17121   0.02814
  0-1A  ->  8-1A    4.230979   34125.2   293.0   0.008594480   0.00200   0.03958   0.02091   0.00096
  0-1A  ->  9-1A    4.386391   35378.6   282.7   0.001915943   0.00046   0.02139  -0.00222  -0.00086
  0-1A  -> 10-1A    4.428206   35715.9   280.0   0.002617441   0.00064  -0.00233  -0.02511  -0.00176

------------------------------------------------------------------------------------------
                     CD SPECTRUM VIA TRANSITION ELECTRIC DIPOLE MOMENTS    
------------------------------------------------------------------------------------------
     Transition      Energy     Energy  Wavelength    R        MX        MY        MZ   
                      (eV)      (cm-1)    (nm)   (1e40*cgs)   (au)      (au)      (au)  
------------------------------------------------------------------------------------------
  0-1A  ->  1-1A    2.480473   20006.4   499.8    5.28996   0.11259  -0.05588  -1.11636
  0-1A  ->  2-1A    3.304299   26651.0   375.2   59.21001  -0.12956  -0.02152  -0.17635
  0-1A  ->  3-1A    3.499228   28223.2   354.3   -2.47264   0.01222  -0.01014   0.05093
  0-1A  ->  4-1A    3.645995   29406.9   340.1  -10.19679  -0.00473  -0.01373  -0.12071
  0-1A  ->  5-1A    3.738431   30152.5   331.6    7.42698  -0.01319   0.00017   0.01951
  0-1A  ->  6-1A    3.971826   32034.9   312.2   90.42362   0.21734  -0.06684  -1.06180
  0-1A  ->  7-1A    4.160065   33553.2   298.0  -61.33427  -0.07406   0.04816   0.29965
  0-1A  ->  8-1A    4.230979   34125.2   293.0   -9.55660  -0.05192  -0.00169   0.18732
  0-1A  ->  9-1A    4.386391   35378.6   282.7   -0.82993  -0.00753   0.01193   0.06668
  0-1A  -> 10-1A    4.428206   35715.9   280.0    9.48850   0.01686  -0.00129   0.07373

------------------------------------------------------------------------------------------
                     CD SPECTRUM VIA TRANSITION VELOCITY DIPOLE MOMENTS    
------------------------------------------------------------------------------------------
     Transition      Energy     Energy  Wavelength    R        MX        MY        MZ   
                      (eV)      (cm-1)    (nm)   (1e40*cgs)   (au)      (au)      (au)  
------------------------------------------------------------------------------------------
  0-1A  ->  1-1A    2.480473   20006.4   499.8   49.71738   0.11259  -0.05588  -1.11636
  0-1A  ->  2-1A    3.304299   26651.0   375.2   63.89338  -0.12956  -0.02152  -0.17635
  0-1A  ->  3-1A    3.499228   28223.2   354.3   -3.45715   0.01222  -0.01014   0.05093
  0-1A  ->  4-1A    3.645995   29406.9   340.1   15.20045  -0.00473  -0.01373  -0.12071
  0-1A  ->  5-1A    3.738431   30152.5   331.6    3.01940  -0.01319   0.00017   0.01951
  0-1A  ->  6-1A    3.971826   32034.9   312.2   46.06627   0.21734  -0.06684  -1.06180
  0-1A  ->  7-1A    4.160065   33553.2   298.0  -32.73614  -0.07406   0.04816   0.29965
  0-1A  ->  8-1A    4.230979   34125.2   293.0   -5.78994  -0.05192  -0.00169   0.18732
  0-1A  ->  9-1A    4.386391   35378.6   282.7   -0.71645  -0.00753   0.01193   0.06668
  0-1A  -> 10-1A    4.428206   35715.9   280.0   -0.39707   0.01686  -0.00129   0.07373

Total run time:     1530.801 sec

           *** ORCA-CIS/TD-DFT FINISHED WITHOUT ERROR ***
-----------------------
CIS/TD-DFT TOTAL ENERGY
-----------------------

    E(SCF)  =  -2706.675294762 Eh
    DE(CIS) =      0.091155718 Eh (Root  1)
    ----------------------------- ---------
    E(tot)  =  -2706.584139044 Eh


Maximum memory used throughout the entire CIS-calculation: 593.1 MB
=> NOW LEAVING ORCA_CIS

-------------------------   --------------------
FINAL SINGLE POINT ENERGY     -2706.584139043571
-------------------------   --------------------


------------------------------------------------------------------------------
                              ORCA PROPERTY CALCULATIONS
------------------------------------------------------------------------------

GBWName                                 ... QX-DMA.gbw
Number of atoms                         ...     76
Number of basis functions               ...   1048
Max core memory                         ...   1024 MB

Electric properties:
Dipole moment                           ... YES
Quadrupole moment                       ...  NO
Static polarizability (Dipole/Dipole)   ...  NO
Static polarizability (Dipole/Quad.)    ...  NO
Static polarizability (Quad./Quad.)     ...  NO
Static polarizability (Velocity)        ...  NO

Atomic electric properties:
Dipole moment                           ...  NO
Quadrupole moment                       ...  NO
Static polarizability                   ...  NO

Choice of electric origin               ... Center of mass
Position of electric origin             ...    -3.540160     1.075238     9.228266

General magnetic properties:
Magnetizability                         ...  NO

EPR properties:
g-Tensor (aka g-matrix)                 ...  NO
Zero-Field splitting spin-orbit         ...  NO
Zero-field splitting spin-spin          ...  NO
Hyperfine couplings                     ...  NO (   0 nuclei)
Quadrupole couplings                    ...  NO (   0 nuclei)
Contact density                         ...  NO (   0 nuclei)

NMR properties:
Chemical shifts                         ...  NO (   0 nuclei)
Spin-rotation constants                 ...  NO (   0 nuclei)
Spin-spin couplings                     ...  NO (   0 nuclei,    0 pairs)

Choice of magnetic origin               ... GIAO
Position of magnetic origin             ...     0.000000     0.000000     0.000000

Properties with geometric perturbations:
SCF Hessian                             ...  NO
IR spectrum                             ...  NO
VCD spectrum                            ...  NO
X-ray spectroscopy properties:
SCF XES/XAS/RIXS spectra                ...  NO


-------------
DIPOLE MOMENT
-------------

Method             : SCF
Type of density    : Electron Density
Multiplicity       :   1
Irrep              :   0
Energy             : -2706.6752947618697362 Eh
Relativity type    : 
Basis              : AO
                                X                 Y                 Z
Electronic contribution:    -28.455391320      58.283267087      -6.312705804
Nuclear contribution   :     32.181628433     -62.920602157       6.461004390
                        -----------------------------------------
Total Dipole Moment    :      3.726237112      -4.637335070       0.148298586
                        -----------------------------------------
Magnitude (a.u.)       :      5.950774070
Magnitude (Debye)      :     15.125665631



--------------------
Rotational spectrum 
--------------------
 
Rotational constants in cm-1:             0.003884             0.000768             0.000650 
Rotational constants in MHz :           116.443637            23.020072            19.492747 

Dipole components along the rotational axes: 
x,y,z [a.u.] :    -5.451997     2.368623    -0.277608 
x,y,z [Debye]:   -13.857875     6.020560    -0.705623 

 

Dipole moment calculation done in   0.0 sec 

Maximum memory used throughout the entire PROP-calculation: 120.4 MB

--------------------------------
SUGGESTED CITATIONS FOR THIS RUN
--------------------------------

Below you find a list of papers that are relevant to this ORCA run
We neither can nor want to force you to cite these papers, but we appreciate if you do
You receive ORCA, which is the product of decades of hard work by many enthusiastic individuals, for free
The only thing we kindly ask in return is that you cite our papers,
We deeply appreciate it, if you show your appreciation for ORCA by not just citing the generic ORCA reference.

Please note that relegating all ORCA citations to the supporting information does *not* help us.
SI sections are not indexed - citations you put there will not count into any citation statistics
But we need these citations in order to attract the funding resources that allow us to do what we are doing

Therefore, if you are a happy ORCA user, please consider citing a few of the papers listed below in the main body of your paper

In addition to the list printed below, the program has created the file QX-DMA.bibtex that contains the list in bibtex format
You can import this file easily into all common literature databanks and citation aid programs


List of essential papers. We consider these as the minimum necessary citations

  1. Neese,F.
     Software update: the ORCA program system, version 5.0
     WIRES Comput. Molec. Sci., 2022 12(1)e1606
     doi.org/10.1002/wcms.1606

List of papers to cite with high priority. The work reported in these papers was absolutely
necessary for this run to complete.
Our perspective: the developers of density functionals and basis sets usually get cited in chemistry papers
Good! But without the algorithms to do something with them, the functionals or basis sets would not do anything.
Hence, in our opinion, the algorithm design and method developments papers are equally worthy of getting cited

  1. Neese,F.; Olbrich,G.
     Efficient use of the resolution of the identity approximation in time-dependent density functional calculations with hybrid density functionals
     Chem. Phys. Lett., 2002 362 170-178
     doi.org/10.1016/s0009-2614(02)01053-9
  2. Neese,F.
     An improvement of the resolution of the identity approximation for the formation of the Coulomb matrix
     J. Comp. Chem., 2003 24(14)1740-1747
     doi.org/10.1002/jcc.10318
  3. Neese,F.; Wennmohs,F.; Hansen,A.; Becker,U.
     Efficient, approximate and parallel Hartree-Fock and hybrid DFT calculations. A 'chain-of-spheres' algorithm for the Hartree-Fock exchange
     Chem. Phys., 2009 356(1-3)98-109
     doi.org/10.1016/j.chemphys.2008.10.036
  4. Garcia-Rates,M.; Neese,F.
     Effect of the Solute Cavity on the Solvation Energy and its Derivatives within the Framework of the Gaussian Charge Scheme
     J. Comput. Chem., 2020 41 922-939
     doi.org/10.1002/jcc.26139
  5. Helmich-Paris,B.; de Souza,B.; Neese,F.; Izsák,R.
     An improved chain of spheres for exchange algorithm
     J. Chem. Phys., 2021 155 104109
     doi.org/doi: 10.1063/5.0058766.
  6. Neese,F.
     The SHARK Integral Generation and Digestion System
     J. Comp. Chem., 2022  1-16
     doi.org/10.1002/jcc.26942

List of suggested additional citations. These are papers that are important in the 'surrounding' of 
of this run, or papers that preceded the highly important papers. If you like your results we are grateful for a citation.

  1. Izsak,R.; Neese,F.
     An overlap fitted chain of spheres exchange method
     J. Chem. Phys., 2011 135 144105
     doi.org/10.1063/1.3646921
  2. Izsak,R.; Hansen,A.; Neese,F.
     The resolution of identity and chain of spheres approximations for the LPNO-CCSD singles Fock term
     Molec. Phys., 2012 110 2413-2417
     doi.org/10.1080/00268976.2012.687466
  3. Neese,F.
     The ORCA program system
     WIRES Comput. Molec. Sci., 2012 2(1)73-78
     doi.org/10.1002/wcms.81
  4. Izsak,R.; Neese,F.; Klopper,W.
     Robust fitting techniques in the chain of spheres approximation to the Fock exchange: The role of the complementary space
     J. Chem. Phys., 2013 139 
     doi.org/10.1063/1.4819264
  5. Neese,F.
     Software update: the ORCA program system, version 4.0
     WIRES Comput. Molec. Sci., 2018 8(1)1-6
     doi.org/10.1002/wcms.1327
  6. Neese,F.; Wennmohs,F.; Becker,U.; Riplinger,C.
     The ORCA quantum chemistry program package
     J. Chem. Phys., 2020 152 Art. No. L224108
     doi.org/10.1063/5.0004608

List of optional additional citations

  1. Neese,F.
     Approximate second-order SCF convergence for spin unrestricted wavefunctions
     Chem. Phys. Lett., 2000 325(1-3)93-98
     doi.org/10.1016/s0009-2614(00)00662-x

Timings for individual modules:

Sum of individual times          ...     2373.717 sec (=  39.562 min)
Startup calculation              ...        9.193 sec (=   0.153 min)   0.4 %
SCF iterations                   ...      833.344 sec (=  13.889 min)  35.1 %
Property integrals               ...        0.245 sec (=   0.004 min)   0.0 %
Property calculations            ...        0.100 sec (=   0.002 min)   0.0 %
CIS module                       ...     1530.836 sec (=  25.514 min)  64.5 %
                             ****ORCA TERMINATED NORMALLY****
TOTAL RUN TIME: 0 days 0 hours 39 minutes 33 seconds 795 msec
