
                                 *****************
                                 * O   R   C   A *
                                 *****************

                                            #,                                       
                                            ###                                      
                                            ####                                     
                                            #####                                    
                                            ######                                   
                                           ########,                                 
                                     ,,################,,,,,                         
                               ,,#################################,,                 
                          ,,##########################################,,             
                       ,#########################################, ''#####,          
                    ,#############################################,,   '####,        
                  ,##################################################,,,,####,       
                ,###########''''           ''''###############################       
              ,#####''   ,,,,##########,,,,          '''####'''          '####       
            ,##' ,,,,###########################,,,                        '##       
           ' ,,###''''                  '''############,,,                           
         ,,##''                                '''############,,,,        ,,,,,,###''
      ,#''                                            '''#######################'''  
     '                                                          ''''####''''         
             ,#######,   #######,   ,#######,      ##                                
            ,#'     '#,  ##    ##  ,#'     '#,    #''#        ,####,   ,####,        
            ##       ##  ##   ,#'  ##            #'  '#       #'       #'  '#        
            ##       ##  #######   ##           ,######,      #####,   #    #        
            '#,     ,#'  ##    ##  '#,     ,#' ,#      #,     #,   #   #,  ,#        
             '#######'   ##     ##  '#######'  #'      '#     '####' # '####'        



                #########################################################
                #                        -***-                          #
                #          Department of theory and spectroscopy        #
                #                                                       #
                #                      Frank Neese                      #
                #                                                       #
                #     Directorship, Architecture, Infrastructure        #
                #                    SHARK, DRIVERS                     #
                #        Core code/Algorithms in most modules           #
                #                                                       #
                #        Max Planck Institute fuer Kohlenforschung      #
                #                Kaiser Wilhelm Platz 1                 #
                #                 D-45470 Muelheim/Ruhr                 #
                #                      Germany                          #
                #                                                       #
                #                  All rights reserved                  #
                #                        -***-                          #
                #########################################################


                         Program Version 6.0.1  -  RELEASE   -


 With contributions from (in alphabetic order):
[Max-Planck-Institut fuer Kohlenforschung]                               
  Daniel Aravena         : Magnetic Suceptibility                        
  Michael Atanasov       : Ab Initio Ligand Field Theory (pilot matlab implementation)
  Alexander A. Auer      : GIAO ZORA, VPT2 properties, NMR spectrum      
  Ute Becker             : All parallelization in ORCA, NUMFREQ, NUMCALC 
  Giovanni Bistoni       : ED, misc. LED, open-shell LED, HFLD           
  Martin Brehm           : Molecular dynamics                            
  Dmytro Bykov           : pre 5.0 version of the SCF Hessian            
  Marcos Casanova-Páez   : Triplet and SCS-CIS(D). UHF-(DLPNO)-IP/EA/STEOM-CCSD. UHF-CVS-IP/STEOM-CCSD   
  Vijay G. Chilkuri      : MRCI spin determinant printing, contributions to CSF-ICE 
  Pauline Colinet        : FMM embedding                                 
  Dipayan Datta          : RHF DLPNO-CCSD density                        
  Achintya Kumar Dutta   : EOM-CC, STEOM-CC                              
  Nicolas Foglia         : Exact transition moments, OPA infrastructure, MCD improvements    
  Dmitry Ganyushin       : Spin-Orbit,Spin-Spin,Magnetic field MRCI      
  Miquel Garcia-Rates    : C-PCM and meta-GGA Hessian, CCSD/C-PCM, Gaussian charge scheme 
  Tiago L. C. Gouveia    : GS-ROHF, GS-ROCIS                             
  Yang Guo               : DLPNO-NEVPT2, F12-NEVPT2, CIM, IAO-localization        
  Andreas Hansen         : Spin unrestricted coupled pair/coupled cluster methods 
  Ingolf Harden          : AUTO-CI MPn and infrastructure                
  Benjamin Helmich-Paris : MC-RPA, TRAH-(SCF,CASSCF), AVAS, COSX integrals, SCF dyn. polar. 
  Lee Huntington         : MR-EOM, pCC                                   
  Robert Izsak           : Overlap fitted RIJCOSX, COSX-SCS-MP3, EOM     
  Riya Kayal             : Wick's Theorem for AUTO-CI, AUTO-CI UHF-CCSDT 
  Emily Kempfer          : AUTO-CI, RHF CISDT and CCSDT                  
  Christian Kollmar      : KDIIS, OOCD, Brueckner-CCSD(T), CCSD density, CASPT2, CASPT2-K, improved NEVPT2 
  Axel Koslowski         : Symmetry handling                             
  Simone Kossmann        : meta-GGA functionals, TD-DFT gradient, OOMP2, (MP2 Hessian; deprecated post 5.0) 
  Lucas Lang             : DCDCAS                                        
  Marvin Lechner         : AUTO-CI (C++ implementation), FIC-MRCC        
  Spencer Leger          : CASSCF response                               
  Dagmar Lenk            : GEPOL surface, SMD, ORCA-2-JSON               
  Dimitrios Liakos       : Extrapolation schemes; Compound Job, initial MDCI parallelization 
  Dimitrios Manganas     : Further ROCIS development; embedding schemes. LFT, Crystal Embedding 
  Dimitrios Pantazis     : SARC Basis sets                               
  Anastasios Papadopoulos: AUTO-CI, single reference methods and gradients 
  Taras Petrenko         : pre 6.0 DFT Hessian and TD-DFT gradient, (ASA, deprecated), ECA, 1-Electron XAS/XES, NRVS 
  Peter Pinski           : DLPNO-MP2, DLPNO-MP2 Gradient                 
  Christoph Reimann      : Effective Core Potentials                     
  Marius Retegan         : Local ZFS, SOC                                
  Christoph Riplinger    : Optimizer, TS searches, QM/MM, DLPNO-CCSD(T), (RO)-DLPNO pert. Triples 
  Michael Roemelt        : Original ROCIS implementation                 
  Masaaki Saitow         : Open-shell DLPNO-CCSD energy and density      
  Barbara Sandhoefer     : DKH picture change effects                    
  Kantharuban Sivalingam : CASSCF convergence/infrastructure, NEVPT2 and variants, FIC-MRCI 
  Bernardo de Souza      : ESD, SOC TD-DFT                               
  Georgi L. Stoychev     : AutoAux, RI-MP2 NMR, DLPNO-MP2 response, X2C  
  Van Anh Tran           : RI-MP2 g-tensors                              
  Willem Van den Heuvel  : Paramagnetic NMR                              
  Zikuan Wang            : NOTCH, Electric field optimization            
  Frank Wennmohs         : Technical directorship and infrastructure     
  Hang Xu                : AUTO-CI-Response properties                   
                                                                         
[FACCTs GmbH]                                                            
  Markus Bursch, Miquel Garcia-Rates, Christoph Riplinger, Bernardo de Souza, Georgi L. Stoychev 
                                                                 
  APM, Basis sets (HGBS, AHGBS, def-TZVP (Ac-Lr), def2-XVPD (La-Lu)), CI-OPT, improved COSX, DLPNO-Multilevel,           
  DOCKER, DRACO, updates on ESD, GOAT, IRC, LR-CPCM, MBIS, meta-GGA TD-DFT gradient, ML-optimized integration grids, 
  MM, NACMEs, nearIR, NEB, NEB-TS, NL-DFT gradient (VV10), 2- and 3-layer-ONIOM, interface openCOSMO-RS, QMMM,   
  Crystal-QMMM, SF, symmetry and pop. for TD-DFT, r2SCAN hybrids, SOLVATOR                                   
                                                                         
[Other institutions]                                                     
  V. Asgeirsson          : NEB                                           
  Christoph Bannwarth    : sTDA-DFT, sTD-DFT, PBEh-3c, B97-3c, D3        
  Sebastian Ehlert       : rSCAN, r2SCAN, r2SCAN-3c, D4, dhf basis sets  
  Marvin Friede          : D4 for Fr, Ra, Ac-Lr                          
  Lars Goerigk           : TD-DFT with DH, B97 family of functionals     
  Stefan Grimme          : VdW corrections, initial TS optimization, DFT functionals, gCP, sTDA/sTD-DF 
  Waldemar Hujo          : DFT-NL                                        
  H. Jonsson             : NEB                                           
  Holger Kruse           : gCP                                           
  Marcel Mueller         : wB97X-3c, vDZP basis set                      
  Hagen Neugebauer       : wr2SCAN                                       
  Tobias Risthaus        : range-separated hybrid DFT                    
  Lukas Wittmann         : regularized MP2, r2SCAN double-hybrids, wr2SCAN        
                                                                         
We gratefully acknowledge several colleagues who have allowed us to      
interface, adapt or use parts of their codes:                            
  Ed Valeev, F. Pavosevic, A. Kumar             : LibInt (2-el integral package), F12 methods 
  Garnet Chan, S. Sharma, J. Yang, R. Olivares  : DMRG                   
  Ulf Ekstrom                                   : XCFun DFT Library      
  Mihaly Kallay                                 : mrcc  (arbitrary order and MRCC methods)
  Frank Weinhold                                : gennbo (NPA and NBO analysis)           
  Simon Mueller                                 : openCOSMO-RS                            
  Christopher J. Cramer and Donald G. Truhlar   : smd solvation model                     
  S Lehtola, MJT Oliveira, MAL Marques          : LibXC Library                           
  Liviu Ungur et al                             : ANISO software                          


 Your calculation uses the libint2 library for the computation of 2-el integrals
 For citations please refer to: http://libint.valeyev.net

 Your ORCA version has been built with support for libXC version: 6.2.2
 For citations please refer to: https://libxc.gitlab.io

 This ORCA versions uses:
   CBLAS   interface :  Fast vector & matrix operations
   LAPACKE interface :  Fast linear algebra routines
   SCALAPACK package :  Parallel linear algebra routines
   Shared memory     :  Shared parallel matrices
   BLAS/LAPACK       :  OpenBLAS 0.3.27  USE64BITINT DYNAMIC_ARCH NO_AFFINITY Cooperlake SINGLE_THREADED
        Core in use  :  Cooperlake
   Copyright (c) 2011-2014, The OpenBLAS Project


XCFun DFT library Copyright 2009-2010 Ulf Ekstrom and contributors.
See http://admol.org/xcfun for more information.
This is free software; see the source code for copying conditions.
There is ABSOLUTELY NO WARRANTY; not even for MERCHANTABILITY or FITNESS FOR A PARTICULAR PURPOSE.
For details see the documentation.
Scientific users of this library should cite U. Ekstrom, L. Visscher, R. Bast, A. J. Thorvaldsen and K. Ruud;
J.Chem.Theor.Comp. 2010, DOI: 10.1021/ct100117s
XCFun Version 0.99 

Warning: RI is on but no J-basis has been assigned. Assigning Def2/J (nothing to worry about!)
================================================================================

----- Orbital basis set information -----
Your calculation utilizes the basis: 6-311G(d,p)
   H, Li - Ne  : R. Krishnan, J. S. Binkley, R. Seeger and J. A. Pople, J. Chem. Phys. 72, 650 (1980).
   Na - Ar     : A. D. McLean and G. S. Chandler J. Chem. Phys. 72, 5639, (1980).
   K  - Ca     : J.-P. Blaudeau, M. P. McGrath, L. A. Curtiss and L. Radom, J. Chem. Phys. 107, 5016 (1997).
   Ga - Kr     : L. A. Curtiss, M. P. McGrath, J.-P. Blandeau, N. E. Davis, R. C. Binning and L. Radom, J. Chem. Phys. 103, 6104 (1995).
   Pol./Diff.
   H, Li - Cl  : T. Clark, J. Chandrasekhar and P. v. R. Schleyer, J. Comp. Chem. 4, 294 (1983).
   H - Ne      : M. J. Frisch, J. A. Pople and J. S. Binkley, J. Chem. Phys. 80, 3265 (1984).

----- AuxJ basis set information -----
Your calculation utilizes the auxiliary basis: def2/J
   F. Weigend, Phys. Chem. Chem. Phys. 8, 1057 (2006).

================================================================================
                                        WARNINGS
                       Please study these warnings very carefully!
================================================================================

WARNING: Functional chosen is sensitive to the integration grid.
         DEFGRID3 seems to be a minimum grid for robust results!
INFO   : Checking CIS options ...

WARNING: CIS/ROCIS methods need fully converged wavefunctions
  ===> : Setting SCFConvForced true
         You can overwrite this default with %scf ConvForced false 


================================================================================
                                       INPUT FILE
================================================================================
NAME = QX-TPA.inp
|  1> ! M062X 6-311G(d,p) TightSCF CPCM(THF)
|  2> 
|  3> %tddft
|  4>   nroots 10            
|  5> end
|  6> 
|  7> * xyz 0 1
|  8>    N       -1.92612        2.37327        4.62138
|  9>    N       -1.35433       -0.31369        4.83617
| 10>    C       -2.91762        1.50300        4.91396
| 11>    C       -2.62988        0.10621        4.97566
| 12>    C       -0.69240        1.94683        4.43178
| 13>    C       -0.38192        0.54825        4.60961
| 14>    C       -4.24592        1.99488        5.11786
| 15>    C       -3.66633       -0.85620        5.21906
| 16>    C       -5.22458        1.03173        5.35748
| 17>    C       -4.94581       -0.33489        5.41282
| 18>    H       -6.25291        1.33888        5.49837
| 19>    H       -5.76746       -1.00590        5.62660
| 20>    C        0.29770        2.97393        4.00758
| 21>    C        0.30369        4.22772        4.63378
| 22>    C        1.18478        2.74057        2.94840
| 23>    C        1.19205        5.21734        4.22431
| 24>    H       -0.39126        4.41573        5.44293
| 25>    C        2.05929        3.73833        2.52898
| 26>    H        1.18272        1.78264        2.44253
| 27>    C        2.07151        4.97604        3.16993
| 28>    H        1.19499        6.17863        4.72615
| 29>    H        2.73161        3.54801        1.69991
| 30>    H        2.75996        5.74915        2.84713
| 31>    C        0.99718       -0.01148        4.58570
| 32>    C        2.05498        0.61509        5.25812
| 33>    C        1.23487       -1.23063        3.93613
| 34>    C        3.32083        0.03735        5.27456
| 35>    H        1.88703        1.54853        5.78148
| 36>    C        2.50556       -1.79743        3.93996
| 37>    H        0.41521       -1.72729        3.43195
| 38>    C        3.55237       -1.16563        4.60974
| 39>    H        4.12668        0.52779        5.80909
| 40>    H        2.67676       -2.73556        3.42378
| 41>    H        4.54155       -1.60994        4.61713
| 42>    C       -4.59498        3.41156        5.07727
| 43>    C       -5.80880        3.96278        5.48277
| 44>    S       -3.55619        4.66300        4.45184
| 45>    C       -5.91807        5.34269        5.28444
| 46>    H       -6.59960        3.37684        5.92999
| 47>    C       -4.77873        5.90063        4.71649
| 48>    H       -6.79378        5.91546        5.55262
| 49>    C       -3.43806       -2.29511        5.26872
| 50>    C       -4.41534       -3.27558        5.27762
| 51>    S       -1.85350       -3.04982        5.37530
| 52>    C       -3.92131       -4.58941        5.38935
| 53>    H       -5.47184       -3.05656        5.20101
| 54>    C       -2.54575       -4.65364        5.47016
| 55>    H       -4.56084       -5.46128        5.43197
| 56>    C       -1.69928       -5.84163        5.58508
| 57>    C       -2.15653       -7.09763        5.14787
| 58>    C       -1.37381       -8.23555        5.26347
| 59>    H       -3.14029       -7.18396        4.70121
| 60>    C       -0.07957       -8.16571        5.80474
| 61>    H       -1.75950       -9.18874        4.92343
| 62>    N        0.72710       -9.32231        5.91183
| 63>    C        0.68403      -10.32656        4.90303
| 64>    C        0.69452       -9.97640        3.54589
| 65>    C        0.64889      -10.96321        2.56597
| 66>    H        0.73732       -8.93064        3.26557
| 67>    C        0.61056      -12.31138        2.91909
| 68>    H        0.65795      -10.67521        1.52032
| 69>    H        0.58201      -13.07770        2.15304
| 70>    C        0.61056      -12.66307        4.26801
| 71>    H        0.57548      -13.70777        4.55737
| 72>    C        0.63873      -11.68233        5.25476
| 73>    H        0.62806      -11.96069        6.30183
| 74>    C       -0.40638       -5.78425        6.13386
| 75>    H       -0.01666       -4.83811        6.49265
| 76>    C        0.39083       -6.91449        6.23361
| 77>    H        1.38529       -6.83338        6.65465
| 78>    C        1.59445       -9.49357        7.02876
| 79>    C        2.91064       -9.93650        6.84184
| 80>    C        1.14320       -9.23001        8.32911
| 81>    C        3.75227      -10.11703        7.93522
| 82>    H        3.26666      -10.13907        5.83875
| 83>    C        1.99692       -9.39700        9.41515
| 84>    H        0.12424       -8.89481        8.48203
| 85>    C        3.30378       -9.84469        9.22670
| 86>    H        4.76819      -10.46078        7.77369
| 87>    H        1.63236       -9.18915       10.41527
| 88>    H        3.96381       -9.98045       10.07575
| 89>    C       -5.20568        8.38084        4.44228
| 90>    C       -6.53323        8.39681        4.95643
| 91>    N       -7.60810        8.36794        5.38169
| 92>    C       -4.68354        9.69528        4.00170
| 93>    O       -5.30014       10.73112        4.05097
| 94>    O       -3.41187        9.62653        3.52406
| 95>    H       -3.17895       10.52957        3.26575
| 96>    C       -4.45300        7.24125        4.35371
| 97>    H       -3.46098        7.38774        3.93888
| 98> *
| 99> 
|100> 
|101>                          ****END OF INPUT****
================================================================================

                       ****************************
                       * Single Point Calculation *
                       ****************************

---------------------------------
CARTESIAN COORDINATES (ANGSTROEM)
---------------------------------
  N     -1.926120    2.373270    4.621380
  N     -1.354330   -0.313690    4.836170
  C     -2.917620    1.503000    4.913960
  C     -2.629880    0.106210    4.975660
  C     -0.692400    1.946830    4.431780
  C     -0.381920    0.548250    4.609610
  C     -4.245920    1.994880    5.117860
  C     -3.666330   -0.856200    5.219060
  C     -5.224580    1.031730    5.357480
  C     -4.945810   -0.334890    5.412820
  H     -6.252910    1.338880    5.498370
  H     -5.767460   -1.005900    5.626600
  C      0.297700    2.973930    4.007580
  C      0.303690    4.227720    4.633780
  C      1.184780    2.740570    2.948400
  C      1.192050    5.217340    4.224310
  H     -0.391260    4.415730    5.442930
  C      2.059290    3.738330    2.528980
  H      1.182720    1.782640    2.442530
  C      2.071510    4.976040    3.169930
  H      1.194990    6.178630    4.726150
  H      2.731610    3.548010    1.699910
  H      2.759960    5.749150    2.847130
  C      0.997180   -0.011480    4.585700
  C      2.054980    0.615090    5.258120
  C      1.234870   -1.230630    3.936130
  C      3.320830    0.037350    5.274560
  H      1.887030    1.548530    5.781480
  C      2.505560   -1.797430    3.939960
  H      0.415210   -1.727290    3.431950
  C      3.552370   -1.165630    4.609740
  H      4.126680    0.527790    5.809090
  H      2.676760   -2.735560    3.423780
  H      4.541550   -1.609940    4.617130
  C     -4.594980    3.411560    5.077270
  C     -5.808800    3.962780    5.482770
  S     -3.556190    4.663000    4.451840
  C     -5.918070    5.342690    5.284440
  H     -6.599600    3.376840    5.929990
  C     -4.778730    5.900630    4.716490
  H     -6.793780    5.915460    5.552620
  C     -3.438060   -2.295110    5.268720
  C     -4.415340   -3.275580    5.277620
  S     -1.853500   -3.049820    5.375300
  C     -3.921310   -4.589410    5.389350
  H     -5.471840   -3.056560    5.201010
  C     -2.545750   -4.653640    5.470160
  H     -4.560840   -5.461280    5.431970
  C     -1.699280   -5.841630    5.585080
  C     -2.156530   -7.097630    5.147870
  C     -1.373810   -8.235550    5.263470
  H     -3.140290   -7.183960    4.701210
  C     -0.079570   -8.165710    5.804740
  H     -1.759500   -9.188740    4.923430
  N      0.727100   -9.322310    5.911830
  C      0.684030  -10.326560    4.903030
  C      0.694520   -9.976400    3.545890
  C      0.648890  -10.963210    2.565970
  H      0.737320   -8.930640    3.265570
  C      0.610560  -12.311380    2.919090
  H      0.657950  -10.675210    1.520320
  H      0.582010  -13.077700    2.153040
  C      0.610560  -12.663070    4.268010
  H      0.575480  -13.707770    4.557370
  C      0.638730  -11.682330    5.254760
  H      0.628060  -11.960690    6.301830
  C     -0.406380   -5.784250    6.133860
  H     -0.016660   -4.838110    6.492650
  C      0.390830   -6.914490    6.233610
  H      1.385290   -6.833380    6.654650
  C      1.594450   -9.493570    7.028760
  C      2.910640   -9.936500    6.841840
  C      1.143200   -9.230010    8.329110
  C      3.752270  -10.117030    7.935220
  H      3.266660  -10.139070    5.838750
  C      1.996920   -9.397000    9.415150
  H      0.124240   -8.894810    8.482030
  C      3.303780   -9.844690    9.226700
  H      4.768190  -10.460780    7.773690
  H      1.632360   -9.189150   10.415270
  H      3.963810   -9.980450   10.075750
  C     -5.205680    8.380840    4.442280
  C     -6.533230    8.396810    4.956430
  N     -7.608100    8.367940    5.381690
  C     -4.683540    9.695280    4.001700
  O     -5.300140   10.731120    4.050970
  O     -3.411870    9.626530    3.524060
  H     -3.178950   10.529570    3.265750
  C     -4.453000    7.241250    4.353710
  H     -3.460980    7.387740    3.938880

----------------------------
CARTESIAN COORDINATES (A.U.)
----------------------------
  NO LB      ZA    FRAG     MASS         X           Y           Z
   0 N     7.0000    0    14.007   -3.639839    4.484830    8.733143
   1 N     7.0000    0    14.007   -2.559313   -0.592788    9.139037
   2 C     6.0000    0    12.011   -5.513503    2.840258    9.286039
   3 C     6.0000    0    12.011   -4.969753    0.200708    9.402635
   4 C     6.0000    0    12.011   -1.308446    3.678976    8.374850
   5 C     6.0000    0    12.011   -0.721724    1.036042    8.710900
   6 C     6.0000    0    12.011   -8.023626    3.769777    9.671354
   7 C     6.0000    0    12.011   -6.928360   -1.617984    9.862594
   8 C     6.0000    0    12.011   -9.873025    1.949687   10.124170
   9 C     6.0000    0    12.011   -9.346226   -0.632850   10.228747
  10 H     1.0000    0     1.008  -11.816287    2.530117   10.390413
  11 H     1.0000    0     1.008  -10.898920   -1.900876   10.632733
  12 C     6.0000    0    12.011    0.562571    5.619913    7.573229
  13 C     6.0000    0    12.011    0.573891    7.989233    8.756575
  14 C     6.0000    0    12.011    2.238910    5.178927    5.571669
  15 C     6.0000    0    12.011    2.252648    9.859344    7.982789
  16 H     1.0000    0     1.008   -0.739374    8.344520   10.285647
  17 C     6.0000    0    12.011    3.891494    7.064420    4.779080
  18 H     1.0000    0     1.008    2.235017    3.368701    4.615713
  19 C     6.0000    0    12.011    3.914587    9.403353    5.990300
  20 H     1.0000    0     1.008    2.258204   11.675919    8.931129
  21 H     1.0000    0     1.008    5.161995    6.704767    3.212364
  22 H     1.0000    0     1.008    5.215569   10.864319    5.380296
  23 C     6.0000    0    12.011    1.884397   -0.021694    8.665717
  24 C     6.0000    0    12.011    3.883349    1.162352    9.936407
  25 C     6.0000    0    12.011    2.333566   -2.325554    7.438208
  26 C     6.0000    0    12.011    6.275459    0.070581    9.967474
  27 H     1.0000    0     1.008    3.565970    2.926298   10.925414
  28 C     6.0000    0    12.011    4.734822   -3.396650    7.445445
  29 H     1.0000    0     1.008    0.784633   -3.264105    6.485446
  30 C     6.0000    0    12.011    6.713006   -2.202721    8.711146
  31 H     1.0000    0     1.008    7.798295    0.997379   10.977589
  32 H     1.0000    0     1.008    5.058343   -5.169459    6.470007
  33 H     1.0000    0     1.008    8.582286   -3.042346    8.725111
  34 C     6.0000    0    12.011   -8.683254    6.446914    9.594650
  35 C     6.0000    0    12.011  -10.977041    7.488569   10.360934
  36 S    16.0000    0    32.060   -6.720225    8.811793    8.412758
  37 C     6.0000    0    12.011  -11.183532   10.096221    9.986144
  38 H     1.0000    0     1.008  -12.471437    6.381303   11.206057
  39 C     6.0000    0    12.011   -9.030491   11.150575    8.912874
  40 H     1.0000    0     1.008  -12.838384   11.178599   10.492931
  41 C     6.0000    0    12.011   -6.496992   -4.337129    9.956438
  42 C     6.0000    0    12.011   -8.343783   -6.189949    9.973256
  43 S    16.0000    0    32.060   -3.502607   -5.763325   10.157845
  44 C     6.0000    0    12.011   -7.410202   -8.672728   10.184396
  45 H     1.0000    0     1.008  -10.340279   -5.776061    9.828485
  46 C     6.0000    0    12.011   -4.810770   -8.794105   10.337104
  47 H     1.0000    0     1.008   -8.618739  -10.320324   10.264936
  48 C     6.0000    0    12.011   -3.211174  -11.039081   10.554272
  49 C     6.0000    0    12.011   -4.075251  -13.412577    9.728064
  50 C     6.0000    0    12.011   -2.596125  -15.562934    9.946517
  51 H     1.0000    0     1.008   -5.934288  -13.575717    8.883999
  52 C     6.0000    0    12.011   -0.150366  -15.430956   10.969369
  53 H     1.0000    0     1.008   -3.324973  -17.364202    9.303934
  54 N     7.0000    0    14.007    1.374020  -17.616613   11.171740
  55 C     6.0000    0    12.011    1.292629  -19.514370    9.265384
  56 C     6.0000    0    12.011    1.312453  -18.852664    6.700761
  57 C     6.0000    0    12.011    1.226224  -20.717464    4.848981
  58 H     1.0000    0     1.008    1.393333  -16.876464    6.171033
  59 C     6.0000    0    12.011    1.153791  -23.265137    5.516281
  60 H     1.0000    0     1.008    1.243345  -20.173223    2.872988
  61 H     1.0000    0     1.008    1.099840  -24.713271    4.068656
  62 C     6.0000    0    12.011    1.153791  -23.929734    8.065370
  63 H     1.0000    0     1.008    1.087500  -25.903931    8.612181
  64 C     6.0000    0    12.011    1.207025  -22.076404    9.930057
  65 H     1.0000    0     1.008    1.186861  -22.602428   11.908733
  66 C     6.0000    0    12.011   -0.767947  -10.930648   11.591316
  67 H     1.0000    0     1.008   -0.031483   -9.142703   12.269330
  68 C     6.0000    0    12.011    0.738562  -13.066492   11.779816
  69 H     1.0000    0     1.008    2.617819  -12.913217   12.575466
  70 C     6.0000    0    12.011    3.013074  -17.940247   13.282431
  71 C     6.0000    0    12.011    5.500312  -18.777264   12.929204
  72 C     6.0000    0    12.011    2.160335  -17.442191   15.739737
  73 C     6.0000    0    12.011    7.090763  -19.118416   14.995393
  74 H     1.0000    0     1.008    6.173093  -19.160066   11.033638
  75 C     6.0000    0    12.011    3.773632  -17.757756   17.792055
  76 H     1.0000    0     1.008    0.234780  -16.808755   16.028714
  77 C     6.0000    0    12.011    6.243239  -18.603768   17.435936
  78 H     1.0000    0     1.008    9.010573  -19.768009   14.690145
  79 H     1.0000    0     1.008    3.084713  -17.364977   19.682008
  80 H     1.0000    0     1.008    7.490515  -18.860317   19.040408
  81 C     6.0000    0    12.011   -9.837310   15.837492    8.394693
  82 C     6.0000    0    12.011  -12.346015   15.867671    9.366295
  83 N     7.0000    0    14.007  -14.377225   15.813115   10.169920
  84 C     6.0000    0    12.011   -8.850608   18.321424    7.562117
  85 O     8.0000    0    15.999  -10.015813   20.278878    7.655224
  86 O     8.0000    0    15.999   -6.447500   18.191505    6.659508
  87 H     1.0000    0     1.008   -6.007345   19.898004    6.171373
  88 C     6.0000    0    12.011   -8.414950   13.683979    8.227320
  89 H     1.0000    0     1.008   -6.540304   13.960805    7.443404

--------------------------------
INTERNAL COORDINATES (ANGSTROEM)
--------------------------------
 N      0   0   0     0.000000000000     0.00000000     0.00000000
 N      1   0   0     2.755509497316     0.00000000     0.00000000
 C      1   2   0     1.351312391455    60.48712198     0.00000000
 C      2   1   3     1.350111577833    60.57599415     2.46126463
 C      1   2   3     1.319039147258    60.12334864   180.34545372
 C      2   1   3     1.319034194136    60.15748838   183.00153114
 C      3   1   2     1.431049277418   119.37589307   179.49284861
 C      4   2   1     1.435167297077   119.42331772   179.34079556
 C      7   3   1     1.393861923757   116.02064644   177.27796220
 C      8   4   2     1.395125845256   115.80405562   177.13008270
 H      9   7   3     1.082429537430   119.55963336   181.31097005
 H     10   8   4     1.082157581409   119.47680671   181.58806839
 C      5   1   2     1.488347425838   116.10826937   175.58617740
 C     13   5   1     1.401481959998   119.52910136    43.54295873
 C     13   5   1     1.401153128106   121.44517613   226.73233541
 C     14  13   5     1.391472929992   120.49740762   182.05470259
 H     14  13   5     1.083063703159   119.10200294     2.19733477
 C     15  13   5     1.391476156497   120.41924880   176.99263243
 H     15  13   5     1.083299859411   119.93847643   357.80827320
 C     18  15  13     1.393876707245   120.23987431     0.74340974
 H     16  14  13     1.084403289049   119.73623453   180.80392779
 H     18  15  13     1.084247642239   119.62502920   180.76670296
 H     20  18  15     1.084371852549   120.11649325   179.45687807
 C      6   2   1     1.488551702495   116.10699241   175.63761064
 C     24   6   2     1.401313477171   121.56865064   225.53897304
 C     24   6   2     1.401700554148   119.44577045    42.11398027
 C     25  24   6     1.391556683610   120.44452455   176.85860058
 H     25  24   6     1.083246567361   120.00617673   357.71689759
 C     26  24   6     1.391377010375   120.52413220   182.25003059
 H     26  24   6     1.082917884052   119.09813583     2.14654976
 C     27  25  24     1.393828283685   120.25203229     0.64795710
 H     27  25  24     1.084272999295   119.61105423   180.73548097
 H     29  26  24     1.084361161837   119.69000657   180.67876230
 H     31  27  25     1.084409083603   120.12604240   179.50305934
 C      7   3   1     1.459613871577   123.47836020   357.61786450
 C     35   7   3     1.393424820649   125.74499494   191.34282461
 S     35   7   3     1.742512388076   124.36565537    13.66893119
 C     36  35   7     1.398365592361   114.65547403   182.86337241
 H     36  35   7     1.081062464430   122.90126786     3.79633620
 C     38  36  35     1.389949596820   112.95534223   359.89810946
 H     38  36  35     1.080210159830   123.46157544   180.37920452
 C      8   4   2     1.457750080295   123.68419051   357.13968125
 C     42   8   4     1.384368747589   126.06945672   191.40719596
 S     42   8   4     1.758344924666   124.53070980    13.31605433
 C     43  42   8     1.408083272644   114.43526665   182.68512032
 H     43  42   8     1.081679759679   123.06872015     2.94199855
 C     45  43  42     1.379427802605   113.45092917     0.02551973
 H     45  43  42     1.082114773118   123.19899261   178.61239021
 C     47  45  43     1.463228726960   128.26340961   180.41726270
 C     49  47  45     1.406330738696   120.83726803    23.49128077
 C     50  49  47     1.385956667721   121.58203208   180.75550169
 H     50  49  47     1.083855046628   119.62783549     1.27804840
 C     51  50  49     1.404602440586   120.77680183   358.90564135
 H     51  50  49     1.083030541490   119.68936857   179.54246713
 N     53  51  50     1.414181147166   120.93810319   180.64459180
 C     55  53  51     1.424096389785   120.38757110    36.34319456
 C     56  55  53     1.401624430902   120.63040540    44.31437008
 C     57  56  55     1.391445032835   120.29648701   180.15906461
 H     57  56  55     1.083524397510   119.46640935     0.08955073
 C     58  57  56     1.394175481136   120.55226100   359.12501667
 H     58  57  56     1.084624361749   119.36379789   180.01187916
 H     60  58  57     1.083925296042   120.35636928   180.42589277
 C     60  58  57     1.394012561816   119.27818614     0.36902352
 H     63  60  58     1.084600343906   120.07707793   179.66421969
 C     63  60  58     1.391517178838   120.55525138     0.45916482
 H     65  63  60     1.083491450543   120.26577100   179.35436228
 C     49  47  45     1.405717739377   121.97754126   203.63203683
 H     67  49  47     1.084339818553   119.69306173     0.45098471
 C     67  49  47     1.386699788779   121.57206050   180.27360286
 H     69  67  49     1.082960851231   119.65905213   179.52294525
 C     55  53  51     1.424485393046   120.33280158   216.17566412
 C     71  55  53     1.401243086477   120.35369106   224.74281294
 C     71  55  53     1.401428042605   120.58881570    45.12748896
 C     72  71  55     1.391550201107   120.28482549   180.69039709
 H     72  71  55     1.083500989109   119.42157841     0.56905660
 C     73  71  55     1.391476331132   120.27015971   180.12746674
 H     73  71  55     1.083523441371   119.46814679     0.10657108
 C     74  72  71     1.393998904627   120.53145468   359.21037306
 H     74  72  71     1.084596445596   119.38108004   179.97658824
 H     76  73  71     1.084594684894   119.37225927   180.02085599
 H     78  74  72     1.083954003175   120.35204029   180.38205308
 C     40  38  36     2.531584300532   107.41446354   179.72395856
 C     82  40  38     1.423725488253    97.41932986   359.00028326
 N     83  82  40     1.156297998528   177.88555912     1.91093469
 C     82  40  38     1.481382269909   147.35944006   179.25103812
 O     85  82  40     1.206477351010   124.71729271   179.51657953
 O     85  82  40     1.360151139028   112.90041168   359.50574027
 H     87  85  82     0.967707096233   105.75972745   179.76723179
 C     82  40  38     1.368589491192    25.64154769   178.80834491
 H     89  82  40     1.085194420093   114.52459609   179.65607701

---------------------------
INTERNAL COORDINATES (A.U.)
---------------------------
 N      0   0   0     0.000000000000     0.00000000     0.00000000
 N      1   0   0     5.207158309347     0.00000000     0.00000000
 C      1   2   0     2.553610341224    60.48712198     0.00000000
 C      2   1   3     2.551341132342    60.57599415     2.46126463
 C      1   2   3     2.492622748239    60.12334864   180.34545372
 C      2   1   3     2.492613388195    60.15748838   183.00153114
 C      3   1   2     2.704291218467   119.37589307   179.49284861
 C      4   2   1     2.712073147836   119.42331772   179.34079556
 C      7   3   1     2.634017304402   116.02064644   177.27796220
 C      8   4   2     2.636405769888   115.80405562   177.13008270
 H      9   7   3     2.045495385009   119.55963336   181.31097005
 H     10   8   4     2.044981462609   119.47680671   181.58806839
 C      5   1   2     2.812569026961   116.10826937   175.58617740
 C     13   5   1     2.648417086028   119.52910136    43.54295873
 C     13   5   1     2.647795683807   121.44517613   226.73233541
 C     14  13   5     2.629502760450   120.49740762   182.05470259
 H     14  13   5     2.046693784561   119.10200294     2.19733477
 C     15  13   5     2.629508857661   120.41924880   176.99263243
 H     15  13   5     2.047140055202   119.93847643   357.80827320
 C     18  15  13     2.634045241145   120.23987431     0.74340974
 H     16  14  13     2.049225235026   119.73623453   180.80392779
 H     18  15  13     2.048931105181   119.62502920   180.76670296
 H     20  18  15     2.049165828650   120.11649325   179.45687807
 C      6   2   1     2.812955053897   116.10699241   175.63761064
 C     24   6   2     2.648098699625   121.56865064   225.53897304
 C     24   6   2     2.648830169106   119.44577045    42.11398027
 C     25  24   6     2.629661031851   120.44452455   176.85860058
 H     25  24   6     2.047039347823   120.00617673   357.71689759
 C     26  24   6     2.629321498643   120.52413220   182.25003059
 H     26  24   6     2.046418226384   119.09813583     2.14654976
 C     27  25  24     2.633953733878   120.25203229     0.64795710
 H     27  25  24     2.048979023073   119.61105423   180.73548097
 H     29  26  24     2.049145626132   119.69000657   180.67876230
 H     31  27  25     2.049236185146   120.12604240   179.50305934
 C      7   3   1     2.758270478553   123.47836020   357.61786450
 C     35   7   3     2.633191299234   125.74499494   191.34282461
 S     35   7   3     3.292871198430   124.36565537    13.66893119
 C     36  35   7     2.642528004661   114.65547403   182.86337241
 H     36  35   7     2.042911991435   122.90126786     3.79633620
 C     38  36  35     2.626624077944   112.95534223   359.89810946
 H     38  36  35     2.041301369158   123.46157544   180.37920452
 C      8   4   2     2.754748423459   123.68419051   357.13968125
 C     42   8   4     2.616077801302   126.06945672   191.40719596
 S     42   8   4     3.322790356590   124.53070980    13.31605433
 C     43  42   8     2.660891759053   114.43526665   182.68512032
 H     43  42   8     2.044078510400   123.06872015     2.94199855
 C     45  43  42     2.606740768440   113.45092917     0.02551973
 H     45  43  42     2.044900566663   123.19899261   178.61239021
 C     47  45  43     2.765101565240   128.26340961   180.41726270
 C     49  47  45     2.657579949850   120.83726803    23.49128077
 C     50  49  47     2.619078535475   121.58203208   180.75550169
 H     50  49  47     2.048189206995   119.62783549     1.27804840
 C     51  50  49     2.654313939745   120.77680183   358.90564135
 H     51  50  49     2.046631118088   119.68936857   179.54246713
 N     53  51  50     2.672415071898   120.93810319   180.64459180
 C     55  53  51     2.691152165001   120.38757110    36.34319456
 C     56  55  53     2.648686317017   120.63040540    44.31437008
 C     57  56  55     2.629450042462   120.29648701   180.15906461
 H     57  56  55     2.047564370716   119.46640935     0.08955073
 C     58  57  56     2.634609841974   120.55226100   359.12501667
 H     58  57  56     2.049643001885   119.36379789   180.01187916
 H     60  58  57     2.048321959149   120.35636928   180.42589277
 C     60  58  57     2.634301969078   119.27818614     0.36902352
 H     63  60  58     2.049597614738   120.07707793   179.66421969
 C     63  60  58     2.629586378650   120.55525138     0.45916482
 H     65  63  60     2.047502109972   120.26577100   179.35436228
 C     49  47  45     2.656421549018   121.97754126   203.63203683
 H     67  49  47     2.049105293171   119.69306173     0.45098471
 C     67  49  47     2.620482830759   121.57206050   180.27360286
 H     69  67  49     2.046499422586   119.65905213   179.52294525
 C     55  53  51     2.691887274627   120.33280158   216.17566412
 C     71  55  53     2.647965680492   120.35369106   224.74281294
 C     71  55  53     2.648315196921   120.58881570    45.12748896
 C     72  71  55     2.629648781695   120.28482549   180.69039709
 H     72  71  55     2.047520135249   119.42157841     0.56905660
 C     73  71  55     2.629509187673   120.27015971   180.12746674
 H     73  71  55     2.047562563875   119.46814679     0.10657108
 C     74  72  71     2.634276160730   120.53145468   359.21037306
 H     74  72  71     2.049590248001   119.38108004   179.97658824
 H     76  73  71     2.049586920756   119.37225927   180.02085599
 H     78  74  72     2.048376207769   120.35204029   180.38205308
 C     40  38  36     4.784001012940   107.41446354   179.72395856
 C     82  40  38     2.690451262681    97.41932986   359.00028326
 N     83  82  40     2.185086546419   177.88555912     1.91093469
 C     82  40  38     2.799406789774   147.35944006   179.25103812
 O     85  82  40     2.279911780188   124.71729271   179.51657953
 O     85  82  40     2.570313153505   112.90041168   359.50574027
 H     87  85  82     1.828701389733   105.75972745   179.76723179
 C     82  40  38     2.586259328115    25.64154769   178.80834491
 H     89  82  40     2.050720256034   114.52459609   179.65607701

---------------------
BASIS SET INFORMATION
---------------------
There are 5 groups of distinct atoms

 Group   1 Type N   : 11s5p1d contracted to 4s3p1d pattern {6311/311/1}
 Group   2 Type C   : 11s5p1d contracted to 4s3p1d pattern {6311/311/1}
 Group   3 Type H   : 5s1p contracted to 3s1p pattern {311/1}
 Group   4 Type S   : 13s9p1d contracted to 6s5p1d pattern {631111/42111/1}
 Group   5 Type O   : 11s5p1d contracted to 4s3p1d pattern {6311/311/1}

Atom   0N    basis set group =>   1
Atom   1N    basis set group =>   1
Atom   2C    basis set group =>   2
Atom   3C    basis set group =>   2
Atom   4C    basis set group =>   2
Atom   5C    basis set group =>   2
Atom   6C    basis set group =>   2
Atom   7C    basis set group =>   2
Atom   8C    basis set group =>   2
Atom   9C    basis set group =>   2
Atom  10H    basis set group =>   3
Atom  11H    basis set group =>   3
Atom  12C    basis set group =>   2
Atom  13C    basis set group =>   2
Atom  14C    basis set group =>   2
Atom  15C    basis set group =>   2
Atom  16H    basis set group =>   3
Atom  17C    basis set group =>   2
Atom  18H    basis set group =>   3
Atom  19C    basis set group =>   2
Atom  20H    basis set group =>   3
Atom  21H    basis set group =>   3
Atom  22H    basis set group =>   3
Atom  23C    basis set group =>   2
Atom  24C    basis set group =>   2
Atom  25C    basis set group =>   2
Atom  26C    basis set group =>   2
Atom  27H    basis set group =>   3
Atom  28C    basis set group =>   2
Atom  29H    basis set group =>   3
Atom  30C    basis set group =>   2
Atom  31H    basis set group =>   3
Atom  32H    basis set group =>   3
Atom  33H    basis set group =>   3
Atom  34C    basis set group =>   2
Atom  35C    basis set group =>   2
Atom  36S    basis set group =>   4
Atom  37C    basis set group =>   2
Atom  38H    basis set group =>   3
Atom  39C    basis set group =>   2
Atom  40H    basis set group =>   3
Atom  41C    basis set group =>   2
Atom  42C    basis set group =>   2
Atom  43S    basis set group =>   4
Atom  44C    basis set group =>   2
Atom  45H    basis set group =>   3
Atom  46C    basis set group =>   2
Atom  47H    basis set group =>   3
Atom  48C    basis set group =>   2
Atom  49C    basis set group =>   2
Atom  50C    basis set group =>   2
Atom  51H    basis set group =>   3
Atom  52C    basis set group =>   2
Atom  53H    basis set group =>   3
Atom  54N    basis set group =>   1
Atom  55C    basis set group =>   2
Atom  56C    basis set group =>   2
Atom  57C    basis set group =>   2
Atom  58H    basis set group =>   3
Atom  59C    basis set group =>   2
Atom  60H    basis set group =>   3
Atom  61H    basis set group =>   3
Atom  62C    basis set group =>   2
Atom  63H    basis set group =>   3
Atom  64C    basis set group =>   2
Atom  65H    basis set group =>   3
Atom  66C    basis set group =>   2
Atom  67H    basis set group =>   3
Atom  68C    basis set group =>   2
Atom  69H    basis set group =>   3
Atom  70C    basis set group =>   2
Atom  71C    basis set group =>   2
Atom  72C    basis set group =>   2
Atom  73C    basis set group =>   2
Atom  74H    basis set group =>   3
Atom  75C    basis set group =>   2
Atom  76H    basis set group =>   3
Atom  77C    basis set group =>   2
Atom  78H    basis set group =>   3
Atom  79H    basis set group =>   3
Atom  80H    basis set group =>   3
Atom  81C    basis set group =>   2
Atom  82C    basis set group =>   2
Atom  83N    basis set group =>   1
Atom  84C    basis set group =>   2
Atom  85O    basis set group =>   5
Atom  86O    basis set group =>   5
Atom  87H    basis set group =>   3
Atom  88C    basis set group =>   2
Atom  89H    basis set group =>   3
---------------------------------
AUXILIARY/J BASIS SET INFORMATION
---------------------------------
There are 5 groups of distinct atoms

 Group   1 Type N   : 12s5p4d2f1g contracted to 6s4p3d1f1g pattern {711111/2111/211/2/1}
 Group   2 Type C   : 12s5p4d2f1g contracted to 6s4p3d1f1g pattern {711111/2111/211/2/1}
 Group   3 Type H   : 5s2p1d contracted to 3s1p1d pattern {311/2/1}
 Group   4 Type S   : 14s5p5d2f1g contracted to 8s4p3d1f1g pattern {71111111/2111/311/2/1}
 Group   5 Type O   : 12s5p4d2f1g contracted to 6s4p3d1f1g pattern {711111/2111/211/2/1}

Atom   0N    basis set group =>   1
Atom   1N    basis set group =>   1
Atom   2C    basis set group =>   2
Atom   3C    basis set group =>   2
Atom   4C    basis set group =>   2
Atom   5C    basis set group =>   2
Atom   6C    basis set group =>   2
Atom   7C    basis set group =>   2
Atom   8C    basis set group =>   2
Atom   9C    basis set group =>   2
Atom  10H    basis set group =>   3
Atom  11H    basis set group =>   3
Atom  12C    basis set group =>   2
Atom  13C    basis set group =>   2
Atom  14C    basis set group =>   2
Atom  15C    basis set group =>   2
Atom  16H    basis set group =>   3
Atom  17C    basis set group =>   2
Atom  18H    basis set group =>   3
Atom  19C    basis set group =>   2
Atom  20H    basis set group =>   3
Atom  21H    basis set group =>   3
Atom  22H    basis set group =>   3
Atom  23C    basis set group =>   2
Atom  24C    basis set group =>   2
Atom  25C    basis set group =>   2
Atom  26C    basis set group =>   2
Atom  27H    basis set group =>   3
Atom  28C    basis set group =>   2
Atom  29H    basis set group =>   3
Atom  30C    basis set group =>   2
Atom  31H    basis set group =>   3
Atom  32H    basis set group =>   3
Atom  33H    basis set group =>   3
Atom  34C    basis set group =>   2
Atom  35C    basis set group =>   2
Atom  36S    basis set group =>   4
Atom  37C    basis set group =>   2
Atom  38H    basis set group =>   3
Atom  39C    basis set group =>   2
Atom  40H    basis set group =>   3
Atom  41C    basis set group =>   2
Atom  42C    basis set group =>   2
Atom  43S    basis set group =>   4
Atom  44C    basis set group =>   2
Atom  45H    basis set group =>   3
Atom  46C    basis set group =>   2
Atom  47H    basis set group =>   3
Atom  48C    basis set group =>   2
Atom  49C    basis set group =>   2
Atom  50C    basis set group =>   2
Atom  51H    basis set group =>   3
Atom  52C    basis set group =>   2
Atom  53H    basis set group =>   3
Atom  54N    basis set group =>   1
Atom  55C    basis set group =>   2
Atom  56C    basis set group =>   2
Atom  57C    basis set group =>   2
Atom  58H    basis set group =>   3
Atom  59C    basis set group =>   2
Atom  60H    basis set group =>   3
Atom  61H    basis set group =>   3
Atom  62C    basis set group =>   2
Atom  63H    basis set group =>   3
Atom  64C    basis set group =>   2
Atom  65H    basis set group =>   3
Atom  66C    basis set group =>   2
Atom  67H    basis set group =>   3
Atom  68C    basis set group =>   2
Atom  69H    basis set group =>   3
Atom  70C    basis set group =>   2
Atom  71C    basis set group =>   2
Atom  72C    basis set group =>   2
Atom  73C    basis set group =>   2
Atom  74H    basis set group =>   3
Atom  75C    basis set group =>   2
Atom  76H    basis set group =>   3
Atom  77C    basis set group =>   2
Atom  78H    basis set group =>   3
Atom  79H    basis set group =>   3
Atom  80H    basis set group =>   3
Atom  81C    basis set group =>   2
Atom  82C    basis set group =>   2
Atom  83N    basis set group =>   1
Atom  84C    basis set group =>   2
Atom  85O    basis set group =>   5
Atom  86O    basis set group =>   5
Atom  87H    basis set group =>   3
Atom  88C    basis set group =>   2
Atom  89H    basis set group =>   3
------------------------------------------------------------------------------
                             ORCA STARTUP CALCULATIONS
                           -- RI-GTO INTEGRALS CHOSEN --
------------------------------------------------------------------------------
------------------------------------------------------------------------------
                   ___                                                        
                  /   \      - P O W E R E D   B Y -                         
                 /     \                                                     
                 |  |  |   _    _      __       _____    __    __             
                 |  |  |  | |  | |    /  \     |  _  \  |  |  /  |          
                  \  \/   | |  | |   /    \    | | | |  |  | /  /          
                 / \  \   | |__| |  /  /\  \   | |_| |  |  |/  /          
                |  |  |   |  __  | /  /__\  \  |    /   |      \           
                |  |  |   | |  | | |   __   |  |    \   |  |\   \          
                \     /   | |  | | |  |  |  |  | |\  \  |  | \   \       
                 \___/    |_|  |_| |__|  |__|  |_| \__\ |__|  \__/        
                                                                              
                      - O R C A' S   B I G   F R I E N D -                    
                                      &                                       
                       - I N T E G R A L  F E E D E R -                       
                                                                              
 v1 FN, 2020, v2 2021, v3 2022-2024                                           
------------------------------------------------------------------------------


----------------------
SHARK INTEGRAL PACKAGE
----------------------

Number of atoms                             ...     90
Number of basis functions                   ...   1252
Number of shells                            ...    600
Maximum angular momentum                    ...      2
Integral batch strategy                     ... SHARK/LIBINT Hybrid
RI-J (if used) integral strategy            ... SPLIT-RIJ (Revised 2003 algorithm where possible)
Printlevel                                  ...      1
Contraction scheme used                     ... SEGMENTED contraction
Prescreening option                         ... SCHWARTZ
   Thresh                                   ... 2.500e-11
   Tcut                                     ... 2.500e-12
   Tpresel                                  ... 2.500e-12 
Coulomb Range Separation                    ... NOT USED
Exchange Range Separation                   ... NOT USED
Multipole approximations                    ... NOT USED
Finite Nucleus Model                        ... NOT USED
CABS basis                                  ... NOT available
Auxiliary Coulomb fitting basis             ... AVAILABLE
   # of basis functions in Aux-J            ...   3198
   # of shells in Aux-J                     ...   1034
   Maximum angular momentum in Aux-J        ...      4
Auxiliary J/K fitting basis                 ... NOT available
Auxiliary Correlation fitting basis         ... NOT available
Auxiliary 'external' fitting basis          ... NOT available

Checking pre-screening integrals            ... done (  0.0 sec) Dimension = 600
Check shell pair data                       ... done (  0.0 sec)
Shell pair information
Shell pair cut-off parameter TPreSel        ...   2.5e-12
Total number of shell pairs                 ...    180300
Shell pairs after pre-screening             ...     58398
Total number of primitive shell pairs       ...    709967
Primitive shell pairs kept                  ...    131117
          la=0 lb=0:  17209 shell pairs
          la=1 lb=0:  23225 shell pairs
          la=1 lb=1:   7942 shell pairs
          la=2 lb=0:   5634 shell pairs
          la=2 lb=1:   3872 shell pairs
          la=2 lb=2:    516 shell pairs

Calculating one electron integrals          ... done (  0.3 sec)
Calculating RI/J V-Matrix + Cholesky decomp.... done (  0.3 sec)
Calculating Nuclear repulsion               ... done (  0.0 sec) ENN=   7225.578470664169 Eh

Diagonalization of the overlap matrix:
Smallest eigenvalue                        ... 8.959e-05
Time for diagonalization                   ...    0.195 sec
Threshold for overlap eigenvalues          ... 1.000e-07
Number of eigenvalues below threshold      ... 0
Time for construction of square roots      ...    0.111 sec
Total time needed                          ...    0.308 sec

-------------------
DFT GRID GENERATION
-------------------

General Integration Accuracy     IntAcc      ... 4.388
Radial Grid Type                 RadialGrid  ... OptM3 with GC (2021)
Angular Grid (max. ang.)         AngularGrid ... 4 (Lebedev-302)
Angular grid pruning method      GridPruning ... 4 (adaptive)
Weight generation scheme         WeightScheme... mBecke (2022)
Basis function cutoff            BFCut       ... 1.0000e-11
Integration weight cutoff        WCut        ... 1.0000e-14
Partially contracted basis set               ... off
Rotationally invariant grid construction     ... off
Angular grids for H and He will be reduced by one unit

Total number of grid points                  ...   449636
Total number of batches                      ...     7075
Average number of points per batch           ...       63
Average number of grid points per atom       ...     4996

--------------------
COSX GRID GENERATION
--------------------

GRIDX 1
-------
General Integration Accuracy     IntAcc      ... 3.816
Radial Grid Type                 RadialGrid  ... OptM3 with GC (2021)
Angular Grid (max. ang.)         AngularGrid ... 1 (Lebedev-50)
Angular grid pruning method      GridPruning ... 4 (adaptive)
Weight generation scheme         WeightScheme... mBecke (2022)
Basis function cutoff            BFCut       ... 1.0000e-11
Integration weight cutoff        WCut        ... 1.0000e-14
Partially contracted basis set               ... on
Rotationally invariant grid construction     ... off
Angular grids for H and He will be reduced by one unit

Total number of grid points                  ...    58998
Total number of batches                      ...      503
Average number of points per batch           ...      117
Average number of grid points per atom       ...      656
UseSFitting                                  ... on

GRIDX 2
-------
General Integration Accuracy     IntAcc      ... 4.020
Radial Grid Type                 RadialGrid  ... OptM3 with GC (2021)
Angular Grid (max. ang.)         AngularGrid ... 2 (Lebedev-110)
Angular grid pruning method      GridPruning ... 4 (adaptive)
Weight generation scheme         WeightScheme... mBecke (2022)
Basis function cutoff            BFCut       ... 1.0000e-11
Integration weight cutoff        WCut        ... 1.0000e-14
Partially contracted basis set               ... on
Rotationally invariant grid construction     ... off
Angular grids for H and He will be reduced by one unit

Total number of grid points                  ...   124469
Total number of batches                      ...     1021
Average number of points per batch           ...      121
Average number of grid points per atom       ...     1383
UseSFitting                                  ... on

GRIDX 3
-------
General Integration Accuracy     IntAcc      ... 4.338
Radial Grid Type                 RadialGrid  ... OptM3 with GC (2021)
Angular Grid (max. ang.)         AngularGrid ... 3 (Lebedev-194)
Angular grid pruning method      GridPruning ... 4 (adaptive)
Weight generation scheme         WeightScheme... mBecke (2022)
Basis function cutoff            BFCut       ... 1.0000e-11
Integration weight cutoff        WCut        ... 1.0000e-14
Partially contracted basis set               ... on
Rotationally invariant grid construction     ... off
Angular grids for H and He will be reduced by one unit

Total number of grid points                  ...   272949
Total number of batches                      ...     2176
Average number of points per batch           ...      125
Average number of grid points per atom       ...     3033
UseSFitting                                  ... on
Initializing property integral containers    ... done (  0.0 sec)

SHARK setup successfully completed in  12.4 seconds

Maximum memory used throughout the entire STARTUP-calculation: 265.3 MB
-------------------------------------------------------------------------------
                                 ORCA GUESS
                   Start orbitals & Density for SCF / CASSCF
-------------------------------------------------------------------------------

------------
SCF SETTINGS
------------
Hamiltonian:
 Density Functional     Method          .... DFT(GTOs)
 Exchange Functional    Exchange        .... M062X
 Correlation Functional Correlation     .... M062X
 Gradients option       PostSCFGGA      .... off
 Hybrid DFT is turned on
   Fraction HF Exchange ScalHFX         ....  0.540000
   Scaling of DF-GGA-X  ScalDFX         ....  0.460000
   Scaling of DF-GGA-C  ScalDFC         ....  1.000000
   Scaling of DF-LDA-C  ScalLDAC        ....  1.000000
   Perturbative correction              ....  0.000000
 RI-approximation to the Coulomb term is turned on
   Number of AuxJ basis functions       .... 3198
   RIJ-COSX (HFX calculated with COS-X)).... on


General Settings:
 Integral files         IntName         .... QX-TPA
 Hartree-Fock type      HFTyp           .... RHF
 Total Charge           Charge          ....    0
 Multiplicity           Mult            ....    1
 Number of Electrons    NEL             ....  408
 Basis Dimension        Dim             .... 1252
 Nuclear Repulsion      ENuc            ....   7225.5784706642 Eh

Convergence Acceleration:
 AO-DIIS                CNVDIIS         .... on
   Start iteration      DIISMaxIt       ....    12
   Startup error        DIISStart       ....  0.200000
   # of expansion vecs  DIISMaxEq       ....     5
   Bias factor          DIISBfac        ....   1.050
   Max. coefficient     DIISMaxC        ....  10.000
 MO-DIIS                CNVKDIIS        .... off
 Trust-Rad. Augm. Hess. CNVTRAH         .... auto
   Auto Start mean grad. ratio tolernc. ....  1.125000
   Auto Start start iteration           ....    50
   Auto Start num. interpolation iter.  ....    10
   Max. Number of Micro iterations      ....    24
   Max. Number of Macro iterations      .... Maxiter - #DIIS iter
   Number of Davidson start vectors     ....     2
   Converg. threshold    (grad. norm)   ....   1.000e-05
   Grad. Scal. Fac. for Micro threshold ....   0.100
   Minimum threshold for Micro iter.    ....   1.000e-02
   NR start threshold (gradient norm)   ....   1.000e-04
   Initial trust radius                 ....   0.400
   Minimum AH scaling param. (alpha)    ....   1.000
   Maximum AH scaling param. (alpha)    .... 1000.000
   Quad. conv. algorithm                .... NR
   White noise on init. David. guess    .... on
   Maximum white noise                  ....   0.010
   Pseudo random numbers                .... off
   Inactive MOs                         .... canonical
   Orbital update algorithm             .... Taylor
   Preconditioner                       .... Diag
   Full preconditioner red. dimension   ....   250
 SOSCF                  CNVSOSCF        .... on
   Start iteration      SOSCFMaxIt      ....   150
   Startup grad/error   SOSCFStart      ....  0.003300
   Hessian update       SOSCFHessUp     .... L-BFGS
 Level Shifting         CNVShift        .... on
   Level shift para.    LevelShift      ....    0.2500
   Turn off err/grad.   ShiftErr        ....    0.0010
 Zerner damping         CNVZerner       .... off
 Static damping         CNVDamp         .... on
   Fraction old density DampFac         ....    0.7000
   Max. Damping (<1)    DampMax         ....    0.9800
   Min. Damping (>=0)   DampMin         ....    0.0000
   Turn off err/grad.   DampErr         ....    0.1000

SCF Procedure:
 Maximum # iterations   MaxIter         ....   125
 SCF integral mode      SCFMode         .... Direct
   Integral package                     .... SHARK and LIBINT hybrid scheme
 Reset frequency        DirectResetFreq ....    20
 Integral Threshold     Thresh          ....  2.500e-11 Eh
 Primitive CutOff       TCut            ....  2.500e-12 Eh

Convergence Tolerance:
 Convergence Check Mode ConvCheckMode   .... Total+1el-Energy
 Convergence forced     ConvForced      .... 1
 Energy Change          TolE            ....  1.000e-08 Eh
 1-El. energy change                    ....  1.000e-05 Eh
 Orbital Gradient       TolG            ....  1.000e-05
 Orbital Rotation angle TolX            ....  1.000e-05
 DIIS Error             TolErr          ....  5.000e-07

------------------------------
INITIAL GUESS: MODEL POTENTIAL
------------------------------
Loading Hartree-Fock densities                     ... done
Calculating cut-offs                               ... done
Initializing the effective Hamiltonian             ... done
Setting up the integral package (SHARK)            ... done
Starting the Coulomb interaction                   ... done (   4.7 sec)
Making the grid                                    ... done (   1.4 sec)
Mapping shells                                     ... done
Starting the XC term evaluation                    ... done (   1.1 sec)
  promolecular density results
     # of electrons  =    407.994625892
     EX              =   -357.468705405
     EC              =    -13.905507346
     EX+EC           =   -371.374212751
Transforming the Hamiltonian                       ... done (   0.1 sec)
Diagonalizing the Hamiltonian                      ... done (   0.2 sec)
Back transforming the eigenvectors                 ... done (   0.1 sec)
Now organizing SCF variables                       ... done
                      ------------------
                      INITIAL GUESS DONE (   7.6 sec)
                      ------------------
             **** ENERGY FILE WAS UPDATED (QX-TPA.en.tmp) ****
Finished Guess after   8.0 sec
Maximum memory used throughout the entire GUESS-calculation: 160.8 MB

-------------------------------------------------------------------------------------------
                                      ORCA LEAN-SCF
                              memory conserving SCF solver
-------------------------------------------------------------------------------------------

--------------------
CPCM SOLVATION MODEL
--------------------
CPCM parameters:
  Epsilon                                         ...       7.5650
  Refrac                                          ...       1.4050
  Rsolv                                           ...       1.3000
  Surface type                                    ... GAUSSIAN VDW
  Discretization scheme                           ... Constant charge density
    Threshold for H atoms                         ...       5.0000 (charges/Ang^2)
    Threshold for non-H atoms                     ...       5.0000 (charges/Ang^2)
  Epsilon function type                           ...         CPCM
Solvent:                                          ... TETRAHYDROFURAN
Radii:
  Scheme                                          ... Element-dependent radii
  Radius for N  used is    3.5149 Bohr (=   1.8600 Ang.)
  Radius for C  used is    3.8550 Bohr (=   2.0400 Ang.)
  Radius for H  used is    2.4944 Bohr (=   1.3200 Ang.)
  Radius for S  used is    4.0818 Bohr (=   2.1600 Ang.)
  Radius for O  used is    3.4469 Bohr (=   1.8240 Ang.)
Calculating surface                               ...        done! (  0.0s)
Cavity surface points                             ...         8237
Cavity Volume                                     ...    6064.2317
Cavity Surface-area                               ...    2875.7508
Calculating surface distance matrix               ...        done! (  0.3s)
Performing Cholesky decomposition & store         ...        done! (  2.9s)
Overall time for CPCM initialization              ...                 3.2s

----------------------------------------D-I-I-S--------------------------------------------
Iteration    Energy (Eh)           Delta-E    RMSDP     MaxDP     DIISErr   Damp  Time(sec)
-------------------------------------------------------------------------------------------
               ***  Starting incremental Fock matrix formation  ***
    1    -3088.8421812765418508     0.00e+00  8.14e-04  1.11e-01  3.21e-01  0.700 114.3
    2    -3089.3683605527430700    -5.26e-01  6.28e-04  8.39e-02  1.51e-01  0.700  57.8
                               ***Turning on AO-DIIS***
    3    -3089.6232104723285374    -2.55e-01  3.26e-04  2.20e-02  5.55e-02  0.700  56.5
    4    -3089.7748140320136372    -1.52e-01  6.86e-04  5.92e-02  4.19e-02  0.000  53.6
    5    -3090.0992518543107508    -3.24e-01  7.98e-05  1.15e-02  8.44e-03  0.000  57.2
                              *** Initializing SOSCF ***
---------------------------------------S-O-S-C-F--------------------------------------
Iteration    Energy (Eh)           Delta-E    RMSDP     MaxDP     MaxGrad    Time(sec)
--------------------------------------------------------------------------------------
    6    -3090.1004617670596417    -1.21e-03  3.04e-05  2.62e-03  3.28e-03    49.8
               *** Restarting incremental Fock matrix formation ***
    7    -3090.1005997167312671    -1.38e-04  3.27e-05  2.38e-03  9.48e-04   114.4
    8    -3090.1007228632433907    -1.23e-04  2.90e-05  2.53e-03  3.69e-04    79.5
    9    -3090.1007288299688298    -5.97e-06  1.34e-05  1.28e-03  7.18e-04    77.0
   10    -3090.1007522084792072    -2.34e-05  3.25e-06  3.36e-04  1.00e-04    70.1
   11    -3090.1007524247061156    -2.16e-07  1.61e-06  1.97e-04  1.07e-04    57.9
   12    -3090.1007530146353020    -5.90e-07  5.54e-07  4.79e-05  9.60e-06    49.7
   13    -3090.1007529257958595     8.88e-08  2.65e-07  1.74e-05  1.03e-05    41.1
   14    -3090.1007530378474257    -1.12e-07  1.12e-07  8.68e-06  2.79e-06    37.1
   15    -3090.1007531536224633    -1.16e-07  5.45e-08  4.20e-06  2.14e-06    32.1
                  *** Gradient check signals convergence ***

               *****************************************************
               *                     SUCCESS                       *
               *           SCF CONVERGED AFTER  15 CYCLES          *
               *****************************************************

Recomputing exchange energy using gridx3       ... done (  178.907 sec)
Old exchange energy                            :   -196.441002767 Eh
New exchange energy                            :   -196.440833398 Eh
Exchange energy change after final integration :      0.000169369 Eh
Total energy after final integration           :  -3090.100583785 Eh
             **** ENERGY FILE WAS UPDATED (QX-TPA.en.tmp) ****

----------------
TOTAL SCF ENERGY
----------------

Total Energy       :      -3090.10058378455869 Eh          -84085.91173 eV

Components:
Nuclear Repulsion  :       7225.57847066416889 Eh          196617.98605 eV
Electronic Energy  :     -10315.63820892694275 Eh         -280702.78632 eV
One Electron Energy:     -18595.97965840974575 Eh         -506022.33218 eV
Two Electron Energy:       8280.34144948280300 Eh          225319.54586 eV
CPCM Dielectric    :         -0.04101489084770 Eh              -1.11607 eV

Virial components:
Potential Energy   :      -6169.95662292850466 Eh         -167893.05523 eV
Kinetic Energy     :       3079.85603914394551 Eh           83807.14350 eV
Virial Ratio       :          2.00332630633069

DFT components:
N(Alpha)           :      204.000102456675 electrons
N(Beta)            :      204.000102456675 electrons
N(Total)           :      408.000204913350 electrons
E(XC)              :     -182.545080329490 Eh       

CPCM Solvation Model Properties:
Surface-charge          :         -0.04259856454563
Corrected charge        :         -0.00000000000000
Outlying charge corr.   :          0.00005389653981 Eh               0.00147 eV
Free-energy (cav+disp)  :  This term is not implemented in the current solvation scheme

---------------
SCF CONVERGENCE
---------------

  Last Energy change         ...    1.1578e-07  Tolerance :   1.0000e-08
  Last MAX-Density change    ...    4.1980e-06  Tolerance :   1.0000e-07
  Last RMS-Density change    ...    5.4504e-08  Tolerance :   5.0000e-09
  Last DIIS Error            ...    3.2804e-03  Tolerance :   5.0000e-07
  Last Orbital Gradient      ...    2.1426e-06  Tolerance :   1.0000e-05
  Last Orbital Rotation      ...    9.3819e-06  Tolerance :   1.0000e-05


----------------
ORBITAL ENERGIES
----------------

  NO   OCC          E(Eh)            E(eV) 
   0   2.0000     -89.942244     -2447.4529 
   1   2.0000     -89.928196     -2447.0706 
   2   2.0000     -19.672191      -535.3075 
   3   2.0000     -19.625809      -534.0454 
   4   2.0000     -14.783729      -402.2857 
   5   2.0000     -14.779798      -402.1787 
   6   2.0000     -14.779049      -402.1584 
   7   2.0000     -14.763961      -401.7478 
   8   2.0000     -10.698437      -291.1193 
   9   2.0000     -10.619569      -288.9732 
  10   2.0000     -10.618043      -288.9316 
  11   2.0000     -10.609168      -288.6901 
  12   2.0000     -10.608450      -288.6706 
  13   2.0000     -10.607658      -288.6490 
  14   2.0000     -10.606307      -288.6123 
  15   2.0000     -10.599712      -288.4328 
  16   2.0000     -10.597046      -288.3603 
  17   2.0000     -10.596434      -288.3436 
  18   2.0000     -10.594355      -288.2871 
  19   2.0000     -10.592652      -288.2407 
  20   2.0000     -10.592531      -288.2374 
  21   2.0000     -10.588739      -288.1342 
  22   2.0000     -10.587899      -288.1114 
  23   2.0000     -10.585436      -288.0443 
  24   2.0000     -10.584084      -288.0076 
  25   2.0000     -10.569407      -287.6082 
  26   2.0000     -10.567976      -287.5693 
  27   2.0000     -10.567248      -287.5494 
  28   2.0000     -10.566566      -287.5309 
  29   2.0000     -10.564858      -287.4844 
  30   2.0000     -10.564621      -287.4780 
  31   2.0000     -10.561160      -287.3838 
  32   2.0000     -10.554556      -287.2041 
  33   2.0000     -10.553916      -287.1867 
  34   2.0000     -10.553360      -287.1715 
  35   2.0000     -10.553054      -287.1632 
  36   2.0000     -10.552998      -287.1617 
  37   2.0000     -10.552891      -287.1588 
  38   2.0000     -10.552317      -287.1431 
  39   2.0000     -10.551211      -287.1131 
  40   2.0000     -10.550542      -287.0948 
  41   2.0000     -10.549900      -287.0774 
  42   2.0000     -10.549666      -287.0710 
  43   2.0000     -10.549231      -287.0592 
  44   2.0000     -10.548951      -287.0516 
  45   2.0000     -10.548316      -287.0343 
  46   2.0000     -10.548287      -287.0335 
  47   2.0000     -10.547409      -287.0096 
  48   2.0000     -10.547388      -287.0090 
  49   2.0000     -10.547312      -287.0070 
  50   2.0000     -10.547289      -287.0063 
  51   2.0000     -10.547165      -287.0029 
  52   2.0000     -10.546124      -286.9746 
  53   2.0000     -10.546101      -286.9740 
  54   2.0000     -10.545962      -286.9702 
  55   2.0000     -10.545892      -286.9683 
  56   2.0000     -10.542672      -286.8807 
  57   2.0000     -10.542566      -286.8778 
  58   2.0000      -8.306458      -226.0302 
  59   2.0000      -8.292583      -225.6526 
  60   2.0000      -6.226828      -169.4406 
  61   2.0000      -6.224704      -169.3828 
  62   2.0000      -6.223342      -169.3457 
  63   2.0000      -6.213071      -169.0662 
  64   2.0000      -6.210948      -169.0085 
  65   2.0000      -6.209460      -168.9680 
  66   2.0000      -1.245354       -33.8878 
  67   2.0000      -1.152843       -31.3705 
  68   2.0000      -1.118543       -30.4371 
  69   2.0000      -1.084786       -29.5185 
  70   2.0000      -1.044536       -28.4233 
  71   2.0000      -1.034959       -28.1627 
  72   2.0000      -1.011738       -27.5308 
  73   2.0000      -1.000498       -27.2249 
  74   2.0000      -0.986880       -26.8544 
  75   2.0000      -0.972535       -26.4640 
  76   2.0000      -0.969690       -26.3866 
  77   2.0000      -0.968047       -26.3419 
  78   2.0000      -0.966230       -26.2924 
  79   2.0000      -0.948546       -25.8113 
  80   2.0000      -0.944327       -25.6964 
  81   2.0000      -0.906892       -24.6778 
  82   2.0000      -0.904229       -24.6053 
  83   2.0000      -0.877131       -23.8679 
  84   2.0000      -0.863292       -23.4914 
  85   2.0000      -0.862776       -23.4773 
  86   2.0000      -0.853859       -23.2347 
  87   2.0000      -0.852293       -23.1921 
  88   2.0000      -0.851400       -23.1678 
  89   2.0000      -0.851124       -23.1603 
  90   2.0000      -0.850234       -23.1361 
  91   2.0000      -0.846960       -23.0470 
  92   2.0000      -0.845727       -23.0134 
  93   2.0000      -0.839633       -22.8476 
  94   2.0000      -0.830149       -22.5895 
  95   2.0000      -0.820227       -22.3195 
  96   2.0000      -0.795537       -21.6477 
  97   2.0000      -0.774818       -21.0839 
  98   2.0000      -0.770464       -20.9654 
  99   2.0000      -0.754086       -20.5197 
 100   2.0000      -0.735519       -20.0145 
 101   2.0000      -0.727880       -19.8066 
 102   2.0000      -0.719816       -19.5872 
 103   2.0000      -0.713091       -19.4042 
 104   2.0000      -0.700242       -19.0545 
 105   2.0000      -0.697327       -18.9752 
 106   2.0000      -0.695861       -18.9353 
 107   2.0000      -0.693767       -18.8784 
 108   2.0000      -0.690445       -18.7880 
 109   2.0000      -0.688965       -18.7477 
 110   2.0000      -0.686017       -18.6675 
 111   2.0000      -0.661370       -17.9968 
 112   2.0000      -0.656972       -17.8771 
 113   2.0000      -0.652546       -17.7567 
 114   2.0000      -0.643148       -17.5009 
 115   2.0000      -0.636107       -17.3093 
 116   2.0000      -0.624908       -17.0046 
 117   2.0000      -0.620225       -16.8772 
 118   2.0000      -0.615961       -16.7611 
 119   2.0000      -0.614014       -16.7082 
 120   2.0000      -0.611819       -16.6484 
 121   2.0000      -0.610153       -16.6031 
 122   2.0000      -0.597181       -16.2501 
 123   2.0000      -0.585514       -15.9326 
 124   2.0000      -0.584841       -15.9143 
 125   2.0000      -0.583002       -15.8643 
 126   2.0000      -0.573477       -15.6051 
 127   2.0000      -0.564649       -15.3649 
 128   2.0000      -0.558418       -15.1953 
 129   2.0000      -0.550917       -14.9912 
 130   2.0000      -0.548380       -14.9222 
 131   2.0000      -0.547060       -14.8863 
 132   2.0000      -0.544979       -14.8296 
 133   2.0000      -0.539138       -14.6707 
 134   2.0000      -0.535691       -14.5769 
 135   2.0000      -0.530794       -14.4436 
 136   2.0000      -0.526888       -14.3373 
 137   2.0000      -0.525232       -14.2923 
 138   2.0000      -0.521518       -14.1912 
 139   2.0000      -0.519867       -14.1463 
 140   2.0000      -0.518487       -14.1087 
 141   2.0000      -0.513522       -13.9736 
 142   2.0000      -0.506195       -13.7743 
 143   2.0000      -0.504289       -13.7224 
 144   2.0000      -0.501881       -13.6569 
 145   2.0000      -0.497993       -13.5511 
 146   2.0000      -0.496017       -13.4973 
 147   2.0000      -0.495472       -13.4825 
 148   2.0000      -0.495109       -13.4726 
 149   2.0000      -0.494431       -13.4541 
 150   2.0000      -0.493073       -13.4172 
 151   2.0000      -0.491173       -13.3655 
 152   2.0000      -0.487576       -13.2676 
 153   2.0000      -0.480030       -13.0623 
 154   2.0000      -0.478749       -13.0274 
 155   2.0000      -0.476857       -12.9759 
 156   2.0000      -0.468412       -12.7461 
 157   2.0000      -0.462015       -12.5721 
 158   2.0000      -0.460371       -12.5273 
 159   2.0000      -0.459909       -12.5148 
 160   2.0000      -0.457963       -12.4618 
 161   2.0000      -0.455716       -12.4007 
 162   2.0000      -0.451704       -12.2915 
 163   2.0000      -0.448153       -12.1949 
 164   2.0000      -0.446932       -12.1616 
 165   2.0000      -0.446012       -12.1366 
 166   2.0000      -0.442319       -12.0361 
 167   2.0000      -0.436132       -11.8678 
 168   2.0000      -0.431220       -11.7341 
 169   2.0000      -0.425902       -11.5894 
 170   2.0000      -0.424709       -11.5569 
 171   2.0000      -0.422059       -11.4848 
 172   2.0000      -0.420991       -11.4558 
 173   2.0000      -0.419166       -11.4061 
 174   2.0000      -0.416890       -11.3441 
 175   2.0000      -0.415514       -11.3067 
 176   2.0000      -0.412285       -11.2188 
 177   2.0000      -0.409901       -11.1540 
 178   2.0000      -0.408747       -11.1226 
 179   2.0000      -0.408526       -11.1165 
 180   2.0000      -0.407126       -11.0785 
 181   2.0000      -0.404792       -11.0149 
 182   2.0000      -0.401045       -10.9130 
 183   2.0000      -0.385707       -10.4956 
 184   2.0000      -0.379591       -10.3292 
 185   2.0000      -0.378598       -10.3022 
 186   2.0000      -0.375267       -10.2115 
 187   2.0000      -0.353337        -9.6148 
 188   2.0000      -0.343600        -9.3498 
 189   2.0000      -0.332427        -9.0458 
 190   2.0000      -0.327385        -8.9086 
 191   2.0000      -0.323966        -8.8156 
 192   2.0000      -0.322916        -8.7870 
 193   2.0000      -0.322730        -8.7819 
 194   2.0000      -0.320454        -8.7200 
 195   2.0000      -0.316648        -8.6164 
 196   2.0000      -0.313392        -8.5278 
 197   2.0000      -0.312504        -8.5037 
 198   2.0000      -0.310641        -8.4530 
 199   2.0000      -0.310134        -8.4392 
 200   2.0000      -0.291734        -7.9385 
 201   2.0000      -0.286939        -7.8080 
 202   2.0000      -0.257491        -7.0067 
 203   2.0000      -0.232093        -6.3156 
 204   0.0000      -0.091263        -2.4834 
 205   0.0000      -0.058628        -1.5953 
 206   0.0000      -0.032847        -0.8938 
 207   0.0000      -0.024721        -0.6727 
 208   0.0000       0.000376         0.0102 
 209   0.0000       0.002208         0.0601 
 210   0.0000       0.007627         0.2075 
 211   0.0000       0.008819         0.2400 
 212   0.0000       0.021375         0.5816 
 213   0.0000       0.022140         0.6025 
 214   0.0000       0.025426         0.6919 
*Only the first 10 virtual orbitals were printed.

[...]
   190a -> 205a  :     0.011975 (c= -0.10943159)
   194a -> 204a  :     0.033412 (c= -0.18278962)
   194a -> 205a  :     0.017247 (c= -0.13132819)
   202a -> 204a  :     0.100667 (c=  0.31728041)
   202a -> 205a  :     0.243956 (c=  0.49391895)
   203a -> 204a  :     0.105086 (c= -0.32417037)
   203a -> 205a  :     0.391062 (c=  0.62534960)

STATE  4:  E=   0.133779 au      3.640 eV    29361.2 cm**-1 <S**2> =   0.000000 Mult 1
   189a -> 204a  :     0.055237 (c= -0.23502486)
   189a -> 205a  :     0.032520 (c= -0.18033234)
   190a -> 204a  :     0.115633 (c= -0.34004872)
   190a -> 205a  :     0.067661 (c= -0.26011691)
   190a -> 207a  :     0.014285 (c= -0.11952044)
   194a -> 204a  :     0.265007 (c= -0.51478808)
   194a -> 205a  :     0.137037 (c= -0.37018535)
   194a -> 206a  :     0.011552 (c= -0.10748050)
   194a -> 207a  :     0.028872 (c= -0.16991684)
   197a -> 204a  :     0.012202 (c= -0.11046201)
   199a -> 204a  :     0.028934 (c= -0.17009869)
   199a -> 205a  :     0.014408 (c= -0.12003245)
   202a -> 204a  :     0.016299 (c= -0.12766560)
   202a -> 205a  :     0.020010 (c= -0.14145787)
   203a -> 204a  :     0.011563 (c=  0.10753299)
   203a -> 205a  :     0.046774 (c= -0.21627250)

STATE  5:  E=   0.137133 au      3.732 eV    30097.2 cm**-1 <S**2> =   0.000000 Mult 1
   188a -> 204a  :     0.023674 (c= -0.15386268)
   200a -> 204a  :     0.202958 (c=  0.45050822)
   200a -> 205a  :     0.026085 (c=  0.16150697)
   201a -> 204a  :     0.387730 (c=  0.62267994)
   201a -> 205a  :     0.065206 (c=  0.25535537)
   202a -> 204a  :     0.029288 (c= -0.17113835)
   202a -> 206a  :     0.037140 (c= -0.19271717)
   202a -> 207a  :     0.019100 (c=  0.13820189)
   203a -> 205a  :     0.039032 (c=  0.19756577)
   203a -> 206a  :     0.074337 (c= -0.27264898)

STATE  6:  E=   0.142861 au      3.887 eV    31354.3 cm**-1 <S**2> =   0.000000 Mult 1
   202a -> 205a  :     0.041224 (c= -0.20303748)
   202a -> 206a  :     0.012109 (c= -0.11004248)
   202a -> 208a  :     0.010529 (c= -0.10261004)
   202a -> 209a  :     0.011202 (c=  0.10584133)
   203a -> 204a  :     0.045317 (c= -0.21287761)
   203a -> 206a  :     0.217675 (c= -0.46655674)
   203a -> 207a  :     0.523686 (c= -0.72366157)
   203a -> 208a  :     0.020598 (c=  0.14352091)
   203a -> 209a  :     0.017152 (c= -0.13096752)

STATE  7:  E=   0.149341 au      4.064 eV    32776.7 cm**-1 <S**2> =   0.000000 Mult 1
   192a -> 204a  :     0.010587 (c= -0.10289106)
   198a -> 204a  :     0.011631 (c= -0.10784526)
   200a -> 204a  :     0.247135 (c= -0.49712690)
   201a -> 204a  :     0.248852 (c=  0.49885103)
   201a -> 205a  :     0.010065 (c=  0.10032674)
   202a -> 204a  :     0.053689 (c= -0.23170964)
   202a -> 206a  :     0.098689 (c=  0.31414882)
   203a -> 205a  :     0.067093 (c=  0.25902341)
   203a -> 206a  :     0.117160 (c=  0.34228638)
   203a -> 207a  :     0.030097 (c= -0.17348596)

STATE  8:  E=   0.156033 au      4.246 eV    34245.2 cm**-1 <S**2> =   0.000000 Mult 1
   190a -> 204a  :     0.040171 (c= -0.20042641)
   192a -> 204a  :     0.066713 (c= -0.25828956)
   194a -> 204a  :     0.051004 (c=  0.22583968)
   200a -> 204a  :     0.126757 (c= -0.35603018)
   200a -> 205a  :     0.014881 (c=  0.12198594)
   201a -> 205a  :     0.051918 (c= -0.22785547)
   202a -> 205a  :     0.130452 (c= -0.36118194)
   202a -> 206a  :     0.037987 (c= -0.19490176)
   203a -> 205a  :     0.078975 (c=  0.28102562)
   203a -> 206a  :     0.107305 (c= -0.32757399)
   203a -> 207a  :     0.184368 (c=  0.42938069)

STATE  9:  E=   0.157448 au      4.284 eV    34555.8 cm**-1 <S**2> =   0.000000 Mult 1
   198a -> 210a  :     0.010087 (c= -0.10043425)
   202a -> 208a  :     0.059767 (c= -0.24447307)
   202a -> 209a  :     0.047861 (c= -0.21877106)
   203a -> 208a  :     0.477085 (c=  0.69071372)
   203a -> 209a  :     0.277026 (c=  0.52633253)
   203a -> 214a  :     0.015460 (c= -0.12433663)

STATE 10:  E=   0.159074 au      4.329 eV    34912.6 cm**-1 <S**2> =   0.000000 Mult 1
   190a -> 204a  :     0.014627 (c=  0.12094351)
   199a -> 204a  :     0.012399 (c= -0.11135278)
   200a -> 204a  :     0.229773 (c= -0.47934668)
   200a -> 205a  :     0.042544 (c= -0.20626141)
   201a -> 205a  :     0.019172 (c=  0.13846129)
   202a -> 204a  :     0.013918 (c= -0.11797297)
   202a -> 205a  :     0.277487 (c=  0.52677013)
   202a -> 206a  :     0.040825 (c= -0.20205146)
   203a -> 204a  :     0.019984 (c=  0.14136485)
   203a -> 205a  :     0.118184 (c= -0.34377875)
   203a -> 206a  :     0.133623 (c= -0.36554478)


-----------------------------
TD-DFT/TDA-EXCITATION SPECTRA
-----------------------------

Center of mass = ( -2.4720, -2.3059,  9.5291)
Generating CIS transition densities           ... done

----------------------------------------------------------------------------------------------------
                     ABSORPTION SPECTRUM VIA TRANSITION ELECTRIC DIPOLE MOMENTS    
----------------------------------------------------------------------------------------------------
     Transition      Energy     Energy  Wavelength fosc(D2)      D2        DX        DY        DZ   
                      (eV)      (cm-1)    (nm)                 (au**2)    (au)      (au)      (au)  
----------------------------------------------------------------------------------------------------
  0-1A  ->  1-1A    2.561728   20661.7   484.0   1.923697271  30.65107   1.44985  -5.32725   0.41157
  0-1A  ->  2-1A    3.307185   26674.3   374.9   0.165013863   2.03659  -0.78162   1.19189   0.07118
  0-1A  ->  3-1A    3.544428   28587.7   349.8   0.055109541   0.63463   0.66595  -0.43398  -0.05296
  0-1A  ->  4-1A    3.640323   29361.2   340.6   0.010298255   0.11547  -0.19127  -0.26153  -0.10242
  0-1A  ->  5-1A    3.731579   30097.2   332.3   0.193457586   2.11609  -1.32779  -0.51834   0.29051
  0-1A  ->  6-1A    3.887442   31354.3   318.9   0.870832608   9.14350  -1.08287   2.80383  -0.33082
  0-1A  ->  7-1A    4.063787   32776.7   305.1   0.142917359   1.43548  -1.14565   0.32958   0.11974
  0-1A  ->  8-1A    4.245861   34245.2   292.0   0.122693577   1.17950   0.94899   0.49682  -0.17915
  0-1A  ->  9-1A    4.284369   34555.8   289.4   0.028794011   0.27432   0.21315   0.18227  -0.44234
  0-1A  -> 10-1A    4.328614   34912.6   286.4   0.116350112   1.09713   1.01857   0.15382  -0.18969

----------------------------------------------------------------------------------------------------
                     ABSORPTION SPECTRUM VIA TRANSITION VELOCITY DIPOLE MOMENTS    
----------------------------------------------------------------------------------------------------
     Transition      Energy     Energy  Wavelength fosc(P2)      P2        PX        PY        PZ   
                      (eV)      (cm-1)    (nm)                 (au**2)    (au)      (au)      (au)  
----------------------------------------------------------------------------------------------------
  0-1A  ->  1-1A    2.561728   20661.7   484.0   1.004853453   0.14190  -0.12713   0.35328  -0.03053
  0-1A  ->  2-1A    3.307185   26674.3   374.9   0.083168422   0.01516   0.10161  -0.06772  -0.01585
  0-1A  ->  3-1A    3.544428   28587.7   349.8   0.037725502   0.00737  -0.07201   0.04660  -0.00369
  0-1A  ->  4-1A    3.640323   29361.2   340.6   0.011574383   0.00232   0.00954   0.02415  -0.04060
  0-1A  ->  5-1A    3.731579   30097.2   332.3   0.032114255   0.00661   0.07205   0.03462  -0.01470
  0-1A  ->  6-1A    3.887442   31354.3   318.9   0.664005147   0.14229   0.11385  -0.35799   0.03422
  0-1A  ->  7-1A    4.063787   32776.7   305.1   0.050040353   0.01121   0.09963  -0.03466  -0.00903
  0-1A  ->  8-1A    4.245861   34245.2   292.0   0.035715503   0.00836  -0.08306  -0.03417   0.01710
  0-1A  ->  9-1A    4.284369   34555.8   289.4   0.012546660   0.00296   0.04610   0.01896   0.02188
  0-1A  -> 10-1A    4.328614   34912.6   286.4   0.020868373   0.00498  -0.06971   0.00776   0.00769

------------------------------------------------------------------------------------------
                     CD SPECTRUM VIA TRANSITION ELECTRIC DIPOLE MOMENTS    
------------------------------------------------------------------------------------------
     Transition      Energy     Energy  Wavelength    R        MX        MY        MZ   
                      (eV)      (cm-1)    (nm)   (1e40*cgs)   (au)      (au)      (au)  
------------------------------------------------------------------------------------------
  0-1A  ->  1-1A    2.561728   20661.7   484.0  -61.14718  -0.09988  -0.14752  -1.24248
  0-1A  ->  2-1A    3.307185   26674.3   374.9   64.97053   0.07652  -0.05702  -0.14098
  0-1A  ->  3-1A    3.544428   28587.7   349.8    8.08341  -0.02079  -0.00779   0.12619
  0-1A  ->  4-1A    3.640323   29361.2   340.6  -23.35361  -0.07903  -0.05018  -0.20793
  0-1A  ->  5-1A    3.731579   30097.2   332.3   21.26876  -0.00140  -0.01439  -0.18735
  0-1A  ->  6-1A    3.887442   31354.3   318.9  -103.64438   0.01012   0.22322   1.19424
  0-1A  ->  7-1A    4.063787   32776.7   305.1   18.00034   0.00330   0.00755  -0.30802
  0-1A  ->  8-1A    4.245861   34245.2   292.0   19.82482  -0.01243  -0.01281   0.13339
  0-1A  ->  9-1A    4.284369   34555.8   289.4  157.20746  -0.58640  -0.25883   0.36462
  0-1A  -> 10-1A    4.328614   34912.6   286.4   12.40536   0.00988  -0.00590   0.18698

------------------------------------------------------------------------------------------
                     CD SPECTRUM VIA TRANSITION VELOCITY DIPOLE MOMENTS    
------------------------------------------------------------------------------------------
     Transition      Energy     Energy  Wavelength    R        MX        MY        MZ   
                      (eV)      (cm-1)    (nm)   (1e40*cgs)   (au)      (au)      (au)  
------------------------------------------------------------------------------------------
  0-1A  ->  1-1A    2.561728   20661.7   484.0   -7.43577  -0.09988  -0.14752  -1.24248
  0-1A  ->  2-1A    3.307185   26674.3   374.9   53.81108   0.07652  -0.05702  -0.14098
  0-1A  ->  3-1A    3.544428   28587.7   349.8    2.41675  -0.02079  -0.00779   0.12619
  0-1A  ->  4-1A    3.640323   29361.2   340.6   22.82272  -0.07903  -0.05018  -0.20793
  0-1A  ->  5-1A    3.731579   30097.2   332.3    7.41167  -0.00140  -0.01439  -0.18735
  0-1A  ->  6-1A    3.887442   31354.3   318.9  -125.05953   0.01012   0.22322   1.19424
  0-1A  ->  7-1A    4.063787   32776.7   305.1    8.99364   0.00330   0.00755  -0.30802
  0-1A  ->  8-1A    4.245861   34245.2   292.0   11.33102  -0.01243  -0.01281   0.13339
  0-1A  ->  9-1A    4.284369   34555.8   289.4  -71.74797  -0.58640  -0.25883   0.36462
  0-1A  -> 10-1A    4.328614   34912.6   286.4    2.08713   0.00988  -0.00590   0.18698

Total run time:     3242.406 sec

           *** ORCA-CIS/TD-DFT FINISHED WITHOUT ERROR ***
-----------------------
CIS/TD-DFT TOTAL ENERGY
-----------------------

    E(SCF)  =  -3090.100583785 Eh
    DE(CIS) =      0.094141781 Eh (Root  1)
    ----------------------------- ---------
    E(tot)  =  -3090.006442004 Eh


Maximum memory used throughout the entire CIS-calculation: 749.4 MB
=> NOW LEAVING ORCA_CIS

-------------------------   --------------------
FINAL SINGLE POINT ENERGY     -3090.006442003715
-------------------------   --------------------


------------------------------------------------------------------------------
                              ORCA PROPERTY CALCULATIONS
------------------------------------------------------------------------------

GBWName                                 ... QX-TPA.gbw
Number of atoms                         ...     90
Number of basis functions               ...   1252
Max core memory                         ...   1024 MB

Electric properties:
Dipole moment                           ... YES
Quadrupole moment                       ...  NO
Static polarizability (Dipole/Dipole)   ...  NO
Static polarizability (Dipole/Quad.)    ...  NO
Static polarizability (Quad./Quad.)     ...  NO
Static polarizability (Velocity)        ...  NO

Atomic electric properties:
Dipole moment                           ...  NO
Quadrupole moment                       ...  NO
Static polarizability                   ...  NO

Choice of electric origin               ... Center of mass
Position of electric origin             ...    -2.472035    -2.305878     9.529123

General magnetic properties:
Magnetizability                         ...  NO

EPR properties:
g-Tensor (aka g-matrix)                 ...  NO
Zero-Field splitting spin-orbit         ...  NO
Zero-field splitting spin-spin          ...  NO
Hyperfine couplings                     ...  NO (   0 nuclei)
Quadrupole couplings                    ...  NO (   0 nuclei)
Contact density                         ...  NO (   0 nuclei)

NMR properties:
Chemical shifts                         ...  NO (   0 nuclei)
Spin-rotation constants                 ...  NO (   0 nuclei)
Spin-spin couplings                     ...  NO (   0 nuclei,    0 pairs)

Choice of magnetic origin               ... GIAO
Position of magnetic origin             ...     0.000000     0.000000     0.000000

Properties with geometric perturbations:
SCF Hessian                             ...  NO
IR spectrum                             ...  NO
VCD spectrum                            ...  NO
X-ray spectroscopy properties:
SCF XES/XAS/RIXS spectra                ...  NO


-------------
DIPOLE MOMENT
-------------

Method             : SCF
Type of density    : Electron Density
Multiplicity       :   1
Irrep              :   0
Energy             : -3090.1005837845586939 Eh
Relativity type    : 
Basis              : AO
                                X                 Y                 Z
Electronic contribution:    -29.060364215      51.893130501      -2.740321616
Nuclear contribution   :     32.147188012     -55.391438042       2.281263897
                        -----------------------------------------
Total Dipole Moment    :      3.086823797      -3.498307541      -0.459057719
                        -----------------------------------------
Magnitude (a.u.)       :      4.688002858
Magnitude (Debye)      :     11.915956289



--------------------
Rotational spectrum 
--------------------
 
Rotational constants in cm-1:             0.003099             0.000449             0.000415 
Rotational constants in MHz :            92.913465            13.466136            12.432624 

Dipole components along the rotational axes: 
x,y,z [a.u.] :     4.176589     2.048923     0.579129 
x,y,z [Debye]:    10.616045     5.207949     1.472029 

 

Dipole moment calculation done in   0.0 sec 

Maximum memory used throughout the entire PROP-calculation: 154.7 MB

--------------------------------
SUGGESTED CITATIONS FOR THIS RUN
--------------------------------

Below you find a list of papers that are relevant to this ORCA run
We neither can nor want to force you to cite these papers, but we appreciate if you do
You receive ORCA, which is the product of decades of hard work by many enthusiastic individuals, for free
The only thing we kindly ask in return is that you cite our papers,
We deeply appreciate it, if you show your appreciation for ORCA by not just citing the generic ORCA reference.

Please note that relegating all ORCA citations to the supporting information does *not* help us.
SI sections are not indexed - citations you put there will not count into any citation statistics
But we need these citations in order to attract the funding resources that allow us to do what we are doing

Therefore, if you are a happy ORCA user, please consider citing a few of the papers listed below in the main body of your paper

In addition to the list printed below, the program has created the file QX-TPA.bibtex that contains the list in bibtex format
You can import this file easily into all common literature databanks and citation aid programs


List of essential papers. We consider these as the minimum necessary citations

  1. Neese,F.
     Software update: the ORCA program system, version 5.0
     WIRES Comput. Molec. Sci., 2022 12(1)e1606
     doi.org/10.1002/wcms.1606

List of papers to cite with high priority. The work reported in these papers was absolutely
necessary for this run to complete.
Our perspective: the developers of density functionals and basis sets usually get cited in chemistry papers
Good! But without the algorithms to do something with them, the functionals or basis sets would not do anything.
Hence, in our opinion, the algorithm design and method developments papers are equally worthy of getting cited

  1. Neese,F.; Olbrich,G.
     Efficient use of the resolution of the identity approximation in time-dependent density functional calculations with hybrid density functionals
     Chem. Phys. Lett., 2002 362 170-178
     doi.org/10.1016/s0009-2614(02)01053-9
  2. Neese,F.
     An improvement of the resolution of the identity approximation for the formation of the Coulomb matrix
     J. Comp. Chem., 2003 24(14)1740-1747
     doi.org/10.1002/jcc.10318
  3. Neese,F.; Wennmohs,F.; Hansen,A.; Becker,U.
     Efficient, approximate and parallel Hartree-Fock and hybrid DFT calculations. A 'chain-of-spheres' algorithm for the Hartree-Fock exchange
     Chem. Phys., 2009 356(1-3)98-109
     doi.org/10.1016/j.chemphys.2008.10.036
  4. Garcia-Rates,M.; Neese,F.
     Effect of the Solute Cavity on the Solvation Energy and its Derivatives within the Framework of the Gaussian Charge Scheme
     J. Comput. Chem., 2020 41 922-939
     doi.org/10.1002/jcc.26139
  5. Helmich-Paris,B.; de Souza,B.; Neese,F.; Izsák,R.
     An improved chain of spheres for exchange algorithm
     J. Chem. Phys., 2021 155 104109
     doi.org/doi: 10.1063/5.0058766.
  6. Neese,F.
     The SHARK Integral Generation and Digestion System
     J. Comp. Chem., 2022  1-16
     doi.org/10.1002/jcc.26942

List of suggested additional citations. These are papers that are important in the 'surrounding' of 
of this run, or papers that preceded the highly important papers. If you like your results we are grateful for a citation.

  1. Izsak,R.; Neese,F.
     An overlap fitted chain of spheres exchange method
     J. Chem. Phys., 2011 135 144105
     doi.org/10.1063/1.3646921
  2. Izsak,R.; Hansen,A.; Neese,F.
     The resolution of identity and chain of spheres approximations for the LPNO-CCSD singles Fock term
     Molec. Phys., 2012 110 2413-2417
     doi.org/10.1080/00268976.2012.687466
  3. Neese,F.
     The ORCA program system
     WIRES Comput. Molec. Sci., 2012 2(1)73-78
     doi.org/10.1002/wcms.81
  4. Izsak,R.; Neese,F.; Klopper,W.
     Robust fitting techniques in the chain of spheres approximation to the Fock exchange: The role of the complementary space
     J. Chem. Phys., 2013 139 
     doi.org/10.1063/1.4819264
  5. Neese,F.
     Software update: the ORCA program system, version 4.0
     WIRES Comput. Molec. Sci., 2018 8(1)1-6
     doi.org/10.1002/wcms.1327
  6. Neese,F.; Wennmohs,F.; Becker,U.; Riplinger,C.
     The ORCA quantum chemistry program package
     J. Chem. Phys., 2020 152 Art. No. L224108
     doi.org/10.1063/5.0004608

List of optional additional citations

  1. Neese,F.
     Approximate second-order SCF convergence for spin unrestricted wavefunctions
     Chem. Phys. Lett., 2000 325(1-3)93-98
     doi.org/10.1016/s0009-2614(00)00662-x

Timings for individual modules:

Sum of individual times          ...     4395.178 sec (=  73.253 min)
Startup calculation              ...       12.456 sec (=   0.208 min)   0.3 %
SCF iterations                   ...     1139.876 sec (=  18.998 min)  25.9 %
Property integrals               ...        0.294 sec (=   0.005 min)   0.0 %
Property calculations            ...        0.113 sec (=   0.002 min)   0.0 %
CIS module                       ...     3242.439 sec (=  54.041 min)  73.8 %
                             ****ORCA TERMINATED NORMALLY****
TOTAL RUN TIME: 0 days 1 hours 13 minutes 15 seconds 403 msec
