
                                 *****************
                                 * O   R   C   A *
                                 *****************

                                            #,                                       
                                            ###                                      
                                            ####                                     
                                            #####                                    
                                            ######                                   
                                           ########,                                 
                                     ,,################,,,,,                         
                               ,,#################################,,                 
                          ,,##########################################,,             
                       ,#########################################, ''#####,          
                    ,#############################################,,   '####,        
                  ,##################################################,,,,####,       
                ,###########''''           ''''###############################       
              ,#####''   ,,,,##########,,,,          '''####'''          '####       
            ,##' ,,,,###########################,,,                        '##       
           ' ,,###''''                  '''############,,,                           
         ,,##''                                '''############,,,,        ,,,,,,###''
      ,#''                                            '''#######################'''  
     '                                                          ''''####''''         
             ,#######,   #######,   ,#######,      ##                                
            ,#'     '#,  ##    ##  ,#'     '#,    #''#        ,####,   ,####,        
            ##       ##  ##   ,#'  ##            #'  '#       #'       #'  '#        
            ##       ##  #######   ##           ,######,      #####,   #    #        
            '#,     ,#'  ##    ##  '#,     ,#' ,#      #,     #,   #   #,  ,#        
             '#######'   ##     ##  '#######'  #'      '#     '####' # '####'        



                #########################################################
                #                        -***-                          #
                #          Department of theory and spectroscopy        #
                #                                                       #
                #                      Frank Neese                      #
                #                                                       #
                #     Directorship, Architecture, Infrastructure        #
                #                    SHARK, DRIVERS                     #
                #        Core code/Algorithms in most modules           #
                #                                                       #
                #        Max Planck Institute fuer Kohlenforschung      #
                #                Kaiser Wilhelm Platz 1                 #
                #                 D-45470 Muelheim/Ruhr                 #
                #                      Germany                          #
                #                                                       #
                #                  All rights reserved                  #
                #                        -***-                          #
                #########################################################


                         Program Version 6.0.1  -  RELEASE   -


 With contributions from (in alphabetic order):
[Max-Planck-Institut fuer Kohlenforschung]                               
  Daniel Aravena         : Magnetic Suceptibility                        
  Michael Atanasov       : Ab Initio Ligand Field Theory (pilot matlab implementation)
  Alexander A. Auer      : GIAO ZORA, VPT2 properties, NMR spectrum      
  Ute Becker             : All parallelization in ORCA, NUMFREQ, NUMCALC 
  Giovanni Bistoni       : ED, misc. LED, open-shell LED, HFLD           
  Martin Brehm           : Molecular dynamics                            
  Dmytro Bykov           : pre 5.0 version of the SCF Hessian            
  Marcos Casanova-Páez   : Triplet and SCS-CIS(D). UHF-(DLPNO)-IP/EA/STEOM-CCSD. UHF-CVS-IP/STEOM-CCSD   
  Vijay G. Chilkuri      : MRCI spin determinant printing, contributions to CSF-ICE 
  Pauline Colinet        : FMM embedding                                 
  Dipayan Datta          : RHF DLPNO-CCSD density                        
  Achintya Kumar Dutta   : EOM-CC, STEOM-CC                              
  Nicolas Foglia         : Exact transition moments, OPA infrastructure, MCD improvements    
  Dmitry Ganyushin       : Spin-Orbit,Spin-Spin,Magnetic field MRCI      
  Miquel Garcia-Rates    : C-PCM and meta-GGA Hessian, CCSD/C-PCM, Gaussian charge scheme 
  Tiago L. C. Gouveia    : GS-ROHF, GS-ROCIS                             
  Yang Guo               : DLPNO-NEVPT2, F12-NEVPT2, CIM, IAO-localization        
  Andreas Hansen         : Spin unrestricted coupled pair/coupled cluster methods 
  Ingolf Harden          : AUTO-CI MPn and infrastructure                
  Benjamin Helmich-Paris : MC-RPA, TRAH-(SCF,CASSCF), AVAS, COSX integrals, SCF dyn. polar. 
  Lee Huntington         : MR-EOM, pCC                                   
  Robert Izsak           : Overlap fitted RIJCOSX, COSX-SCS-MP3, EOM     
  Riya Kayal             : Wick's Theorem for AUTO-CI, AUTO-CI UHF-CCSDT 
  Emily Kempfer          : AUTO-CI, RHF CISDT and CCSDT                  
  Christian Kollmar      : KDIIS, OOCD, Brueckner-CCSD(T), CCSD density, CASPT2, CASPT2-K, improved NEVPT2 
  Axel Koslowski         : Symmetry handling                             
  Simone Kossmann        : meta-GGA functionals, TD-DFT gradient, OOMP2, (MP2 Hessian; deprecated post 5.0) 
  Lucas Lang             : DCDCAS                                        
  Marvin Lechner         : AUTO-CI (C++ implementation), FIC-MRCC        
  Spencer Leger          : CASSCF response                               
  Dagmar Lenk            : GEPOL surface, SMD, ORCA-2-JSON               
  Dimitrios Liakos       : Extrapolation schemes; Compound Job, initial MDCI parallelization 
  Dimitrios Manganas     : Further ROCIS development; embedding schemes. LFT, Crystal Embedding 
  Dimitrios Pantazis     : SARC Basis sets                               
  Anastasios Papadopoulos: AUTO-CI, single reference methods and gradients 
  Taras Petrenko         : pre 6.0 DFT Hessian and TD-DFT gradient, (ASA, deprecated), ECA, 1-Electron XAS/XES, NRVS 
  Peter Pinski           : DLPNO-MP2, DLPNO-MP2 Gradient                 
  Christoph Reimann      : Effective Core Potentials                     
  Marius Retegan         : Local ZFS, SOC                                
  Christoph Riplinger    : Optimizer, TS searches, QM/MM, DLPNO-CCSD(T), (RO)-DLPNO pert. Triples 
  Michael Roemelt        : Original ROCIS implementation                 
  Masaaki Saitow         : Open-shell DLPNO-CCSD energy and density      
  Barbara Sandhoefer     : DKH picture change effects                    
  Kantharuban Sivalingam : CASSCF convergence/infrastructure, NEVPT2 and variants, FIC-MRCI 
  Bernardo de Souza      : ESD, SOC TD-DFT                               
  Georgi L. Stoychev     : AutoAux, RI-MP2 NMR, DLPNO-MP2 response, X2C  
  Van Anh Tran           : RI-MP2 g-tensors                              
  Willem Van den Heuvel  : Paramagnetic NMR                              
  Zikuan Wang            : NOTCH, Electric field optimization            
  Frank Wennmohs         : Technical directorship and infrastructure     
  Hang Xu                : AUTO-CI-Response properties                   
                                                                         
[FACCTs GmbH]                                                            
  Markus Bursch, Miquel Garcia-Rates, Christoph Riplinger, Bernardo de Souza, Georgi L. Stoychev 
                                                                 
  APM, Basis sets (HGBS, AHGBS, def-TZVP (Ac-Lr), def2-XVPD (La-Lu)), CI-OPT, improved COSX, DLPNO-Multilevel,           
  DOCKER, DRACO, updates on ESD, GOAT, IRC, LR-CPCM, MBIS, meta-GGA TD-DFT gradient, ML-optimized integration grids, 
  MM, NACMEs, nearIR, NEB, NEB-TS, NL-DFT gradient (VV10), 2- and 3-layer-ONIOM, interface openCOSMO-RS, QMMM,   
  Crystal-QMMM, SF, symmetry and pop. for TD-DFT, r2SCAN hybrids, SOLVATOR                                   
                                                                         
[Other institutions]                                                     
  V. Asgeirsson          : NEB                                           
  Christoph Bannwarth    : sTDA-DFT, sTD-DFT, PBEh-3c, B97-3c, D3        
  Sebastian Ehlert       : rSCAN, r2SCAN, r2SCAN-3c, D4, dhf basis sets  
  Marvin Friede          : D4 for Fr, Ra, Ac-Lr                          
  Lars Goerigk           : TD-DFT with DH, B97 family of functionals     
  Stefan Grimme          : VdW corrections, initial TS optimization, DFT functionals, gCP, sTDA/sTD-DF 
  Waldemar Hujo          : DFT-NL                                        
  H. Jonsson             : NEB                                           
  Holger Kruse           : gCP                                           
  Marcel Mueller         : wB97X-3c, vDZP basis set                      
  Hagen Neugebauer       : wr2SCAN                                       
  Tobias Risthaus        : range-separated hybrid DFT                    
  Lukas Wittmann         : regularized MP2, r2SCAN double-hybrids, wr2SCAN        
                                                                         
We gratefully acknowledge several colleagues who have allowed us to      
interface, adapt or use parts of their codes:                            
  Ed Valeev, F. Pavosevic, A. Kumar             : LibInt (2-el integral package), F12 methods 
  Garnet Chan, S. Sharma, J. Yang, R. Olivares  : DMRG                   
  Ulf Ekstrom                                   : XCFun DFT Library      
  Mihaly Kallay                                 : mrcc  (arbitrary order and MRCC methods)
  Frank Weinhold                                : gennbo (NPA and NBO analysis)           
  Simon Mueller                                 : openCOSMO-RS                            
  Christopher J. Cramer and Donald G. Truhlar   : smd solvation model                     
  S Lehtola, MJT Oliveira, MAL Marques          : LibXC Library                           
  Liviu Ungur et al                             : ANISO software                          


 Your calculation uses the libint2 library for the computation of 2-el integrals
 For citations please refer to: http://libint.valeyev.net

 Your ORCA version has been built with support for libXC version: 6.2.2
 For citations please refer to: https://libxc.gitlab.io

 This ORCA versions uses:
   CBLAS   interface :  Fast vector & matrix operations
   LAPACKE interface :  Fast linear algebra routines
   SCALAPACK package :  Parallel linear algebra routines
   Shared memory     :  Shared parallel matrices
   BLAS/LAPACK       :  OpenBLAS 0.3.27  USE64BITINT DYNAMIC_ARCH NO_AFFINITY Cooperlake SINGLE_THREADED
        Core in use  :  Cooperlake
   Copyright (c) 2011-2014, The OpenBLAS Project


Warning: RI is on but no J-basis has been assigned. Assigning Def2/J (nothing to worry about!)
================================================================================

----- Orbital basis set information -----
Your calculation utilizes the basis: 6-311G(d,p)
   H, Li - Ne  : R. Krishnan, J. S. Binkley, R. Seeger and J. A. Pople, J. Chem. Phys. 72, 650 (1980).
   Na - Ar     : A. D. McLean and G. S. Chandler J. Chem. Phys. 72, 5639, (1980).
   K  - Ca     : J.-P. Blaudeau, M. P. McGrath, L. A. Curtiss and L. Radom, J. Chem. Phys. 107, 5016 (1997).
   Ga - Kr     : L. A. Curtiss, M. P. McGrath, J.-P. Blandeau, N. E. Davis, R. C. Binning and L. Radom, J. Chem. Phys. 103, 6104 (1995).
   Pol./Diff.
   H, Li - Cl  : T. Clark, J. Chandrasekhar and P. v. R. Schleyer, J. Comp. Chem. 4, 294 (1983).
   H - Ne      : M. J. Frisch, J. A. Pople and J. S. Binkley, J. Chem. Phys. 80, 3265 (1984).

----- AuxJ basis set information -----
Your calculation utilizes the auxiliary basis: def2/J
   F. Weigend, Phys. Chem. Chem. Phys. 8, 1057 (2006).

================================================================================
                                        WARNINGS
                       Please study these warnings very carefully!
================================================================================

INFO   : Checking CIS options ...

WARNING: CIS/ROCIS methods need fully converged wavefunctions
  ===> : Setting SCFConvForced true
         You can overwrite this default with %scf ConvForced false 


================================================================================
                                       INPUT FILE
================================================================================
NAME = QX-DMA.inp
|  1> ! PBE 6-311G(d,p) TightSCF CPCM(THF)
|  2> 
|  3> %tddft
|  4>   nroots 10           
|  5> end
|  6> 
|  7> * xyz 0 1
|  8>    N       -1.90799        2.40480        4.72204
|  9>    N       -1.34517       -0.28641        4.90561
| 10>    C       -2.92291        1.51690        4.80893
| 11>    C       -2.63140        0.11985        4.85341
| 12>    C       -0.65455        1.99376        4.71807
| 13>    C       -0.35979        0.59043        4.88065
| 14>    C       -4.27237        1.99242        4.81461
| 15>    C       -3.68201       -0.85869        4.87842
| 16>    C       -5.26518        1.01407        4.84736
| 17>    C       -4.98268       -0.35188        4.88459
| 18>    H       -6.30629        1.31013        4.83224
| 19>    H       -5.81976       -1.03622        4.93053
| 20>    C        0.37801        3.04531        4.50781
| 21>    C        0.26327        4.26956        5.18024
| 22>    C        1.42994        2.86651        3.59979
| 23>    C        1.19229        5.28312        4.96611
| 24>    H       -0.55822        4.41590        5.87076
| 25>    C        2.34700        3.88844        3.37402
| 26>    H        1.52484        1.93263        3.05904
| 27>    C        2.23618        5.09602        4.06129
| 28>    H        1.09835        6.22079        5.50265
| 29>    H        3.14887        3.74087        2.65925
| 30>    H        2.95693        5.88788        3.88983
| 31>    C        1.01212        0.04003        5.05708
| 32>    C        1.93655        0.63967        5.92282
| 33>    C        1.37075       -1.14336        4.39730
| 34>    C        3.19189        0.07168        6.11761
| 35>    H        1.67069        1.54455        6.45570
| 36>    C        2.63277       -1.69989        4.58099
| 37>    H        0.65167       -1.62080        3.74331
| 38>    C        3.54714       -1.09442        5.44178
| 39>    H        3.89245        0.54106        6.79922
| 40>    H        2.89984       -2.60998        4.05532
| 41>    H        4.52911       -1.53066        5.58841
| 42>    C       -4.62761        3.40731        4.78084
| 43>    C       -5.89716        3.93400        5.01180
| 44>    S       -3.51851        4.69046        4.38106
| 45>    C       -5.99079        5.32032        4.85630
| 46>    H       -6.74095        3.32449        5.30380
| 47>    C       -4.78312        5.90915        4.49935
| 48>    H       -6.90480        5.87616        5.00659
| 49>    C       -3.44843       -2.29581        4.89383
| 50>    C       -4.40160       -3.27814        4.68503
| 51>    S       -1.89683       -3.05407        5.23279
| 52>    C       -3.92161       -4.59481        4.81639
| 53>    H       -5.43111       -3.05681        4.43725
| 54>    C       -2.57940       -4.66217        5.13162
| 55>    H       -4.55010       -5.46892        4.70717
| 56>    C       -1.75539       -5.85180        5.33515
| 57>    C       -2.10754       -7.08459        4.75972
| 58>    C       -1.34864       -8.22707        4.95006
| 59>    H       -2.98801       -7.14783        4.13013
| 60>    C       -0.16706       -8.20114        5.72677
| 61>    H       -1.67285       -9.14495        4.47940
| 62>    N        0.61190       -9.33077        5.89629
| 63>    C       -0.58828       -5.83092        6.11661
| 64>    H       -0.28796       -4.91004        6.60473
| 65>    C        0.18482       -6.96376        6.31263
| 66>    H        1.06332       -6.88506        6.93801
| 67>    C       -5.19286        8.39622        4.26125
| 68>    C       -6.58540        8.38303        4.55703
| 69>    N       -7.71395        8.33049        4.80359
| 70>    C       -4.62373        9.73037        3.96292
| 71>    O       -5.25238       10.76035        3.95560
| 72>    O       -3.29151        9.68913        3.69029
| 73>    H       -3.03267       10.60359        3.50833
| 74>    C       -4.42138        7.26531        4.24819
| 75>    H       -3.37801        7.43528        4.00290
| 76>    C        0.12351      -10.62122        5.43768
| 77>    H       -0.80235      -10.92860        5.94504
| 78>    H       -0.06728      -10.61196        4.35986
| 79>    H        0.88379      -11.37747        5.62897
| 80>    C        1.72866       -9.30557        6.82685
| 81>    H        2.45257       -8.53144        6.55340
| 82>    H        1.41274       -9.12553        7.86469
| 83>    H        2.24403      -10.26447        6.78916
| 84> *
| 85> 
| 86> 
| 87>                          ****END OF INPUT****
================================================================================

                       ****************************
                       * Single Point Calculation *
                       ****************************

---------------------------------
CARTESIAN COORDINATES (ANGSTROEM)
---------------------------------
  N     -1.907990    2.404800    4.722040
  N     -1.345170   -0.286410    4.905610
  C     -2.922910    1.516900    4.808930
  C     -2.631400    0.119850    4.853410
  C     -0.654550    1.993760    4.718070
  C     -0.359790    0.590430    4.880650
  C     -4.272370    1.992420    4.814610
  C     -3.682010   -0.858690    4.878420
  C     -5.265180    1.014070    4.847360
  C     -4.982680   -0.351880    4.884590
  H     -6.306290    1.310130    4.832240
  H     -5.819760   -1.036220    4.930530
  C      0.378010    3.045310    4.507810
  C      0.263270    4.269560    5.180240
  C      1.429940    2.866510    3.599790
  C      1.192290    5.283120    4.966110
  H     -0.558220    4.415900    5.870760
  C      2.347000    3.888440    3.374020
  H      1.524840    1.932630    3.059040
  C      2.236180    5.096020    4.061290
  H      1.098350    6.220790    5.502650
  H      3.148870    3.740870    2.659250
  H      2.956930    5.887880    3.889830
  C      1.012120    0.040030    5.057080
  C      1.936550    0.639670    5.922820
  C      1.370750   -1.143360    4.397300
  C      3.191890    0.071680    6.117610
  H      1.670690    1.544550    6.455700
  C      2.632770   -1.699890    4.580990
  H      0.651670   -1.620800    3.743310
  C      3.547140   -1.094420    5.441780
  H      3.892450    0.541060    6.799220
  H      2.899840   -2.609980    4.055320
  H      4.529110   -1.530660    5.588410
  C     -4.627610    3.407310    4.780840
  C     -5.897160    3.934000    5.011800
  S     -3.518510    4.690460    4.381060
  C     -5.990790    5.320320    4.856300
  H     -6.740950    3.324490    5.303800
  C     -4.783120    5.909150    4.499350
  H     -6.904800    5.876160    5.006590
  C     -3.448430   -2.295810    4.893830
  C     -4.401600   -3.278140    4.685030
  S     -1.896830   -3.054070    5.232790
  C     -3.921610   -4.594810    4.816390
  H     -5.431110   -3.056810    4.437250
  C     -2.579400   -4.662170    5.131620
  H     -4.550100   -5.468920    4.707170
  C     -1.755390   -5.851800    5.335150
  C     -2.107540   -7.084590    4.759720
  C     -1.348640   -8.227070    4.950060
  H     -2.988010   -7.147830    4.130130
  C     -0.167060   -8.201140    5.726770
  H     -1.672850   -9.144950    4.479400
  N      0.611900   -9.330770    5.896290
  C     -0.588280   -5.830920    6.116610
  H     -0.287960   -4.910040    6.604730
  C      0.184820   -6.963760    6.312630
  H      1.063320   -6.885060    6.938010
  C     -5.192860    8.396220    4.261250
  C     -6.585400    8.383030    4.557030
  N     -7.713950    8.330490    4.803590
  C     -4.623730    9.730370    3.962920
  O     -5.252380   10.760350    3.955600
  O     -3.291510    9.689130    3.690290
  H     -3.032670   10.603590    3.508330
  C     -4.421380    7.265310    4.248190
  H     -3.378010    7.435280    4.002900
  C      0.123510  -10.621220    5.437680
  H     -0.802350  -10.928600    5.945040
  H     -0.067280  -10.611960    4.359860
  H      0.883790  -11.377470    5.628970
  C      1.728660   -9.305570    6.826850
  H      2.452570   -8.531440    6.553400
  H      1.412740   -9.125530    7.864690
  H      2.244030  -10.264470    6.789160

----------------------------
CARTESIAN COORDINATES (A.U.)
----------------------------
  NO LB      ZA    FRAG     MASS         X           Y           Z
   0 N     7.0000    0    14.007   -3.605579    4.544413    8.923362
   1 N     7.0000    0    14.007   -2.542003   -0.541236    9.270259
   2 C     6.0000    0    12.011   -5.523499    2.866526    9.087561
   3 C     6.0000    0    12.011   -4.972625    0.226484    9.171616
   4 C     6.0000    0    12.011   -1.236920    3.767660    8.915860
   5 C     6.0000    0    12.011   -0.679905    1.115751    9.223092
   6 C     6.0000    0    12.011   -8.073609    3.765128    9.098294
   7 C     6.0000    0    12.011   -6.957991   -1.622689    9.218878
   8 C     6.0000    0    12.011   -9.949748    1.916315    9.160183
   9 C     6.0000    0    12.011   -9.415901   -0.664957    9.230537
  10 H     1.0000    0     1.008  -11.917161    2.475787    9.131610
  11 H     1.0000    0     1.008  -10.997753   -1.958172    9.317351
  12 C     6.0000    0    12.011    0.714335    5.754802    8.518526
  13 C     6.0000    0    12.011    0.497508    8.068299    9.789235
  14 C     6.0000    0    12.011    2.702195    5.416919    6.802617
  15 C     6.0000    0    12.011    2.253102    9.983650    9.384588
  16 H     1.0000    0     1.008   -1.054883    8.344842   11.094129
  17 C     6.0000    0    12.011    4.435187    7.348087    6.375974
  18 H     1.0000    0     1.008    2.881530    3.652141    5.780748
  19 C     6.0000    0    12.011    4.225768    9.630082    7.674726
  20 H     1.0000    0     1.008    2.075581   11.755589   10.398502
  21 H     1.0000    0     1.008    5.950502    7.069220    5.025254
  22 H     1.0000    0     1.008    5.587788   11.126481    7.350713
  23 C     6.0000    0    12.011    1.912630    0.075646    9.556496
  24 C     6.0000    0    12.011    3.659549    1.208801   11.192508
  25 C     6.0000    0    12.011    2.590342   -2.160637    8.309693
  26 C     6.0000    0    12.011    6.031798    0.135456   11.560607
  27 H     1.0000    0     1.008    3.157147    2.918777   12.199505
  28 C     6.0000    0    12.011    4.975214   -3.212327    8.656817
  29 H     1.0000    0     1.008    1.231478   -3.062868    7.073831
  30 C     6.0000    0    12.011    6.703123   -2.068154   10.283474
  31 H     1.0000    0     1.008    7.355664    1.022455   12.848664
  32 H     1.0000    0     1.008    5.479903   -4.932147    7.663444
  33 H     1.0000    0     1.008    8.558778   -2.892528   10.560564
  34 C     6.0000    0    12.011   -8.744916    6.438883    9.034478
  35 C     6.0000    0    12.011  -11.144017    7.434183    9.470929
  36 S    16.0000    0    32.060   -6.649020    8.863685    8.279004
  37 C     6.0000    0    12.011  -11.320952   10.053948    9.177077
  38 H     1.0000    0     1.008  -12.738549    6.282376   10.022729
  39 C     6.0000    0    12.011   -9.038787   11.166675    8.502539
  40 H     1.0000    0     1.008  -13.048181   11.104333    9.461084
  41 C     6.0000    0    12.011   -6.516588   -4.338452    9.247998
  42 C     6.0000    0    12.011   -8.317819   -6.194787    8.853424
  43 S    16.0000    0    32.060   -3.584489   -5.771356    9.888540
  44 C     6.0000    0    12.011   -7.410769   -8.682933    9.101658
  45 H     1.0000    0     1.008  -10.263311   -5.776534    8.385187
  46 C     6.0000    0    12.011   -4.874360   -8.810224    9.697356
  47 H     1.0000    0     1.008   -8.598443  -10.334761    8.895262
  48 C     6.0000    0    12.011   -3.317206  -11.058299   10.081972
  49 C     6.0000    0    12.011   -3.982673  -13.387935    8.994567
  50 C     6.0000    0    12.011   -2.548560  -15.546909    9.354258
  51 H     1.0000    0     1.008   -5.646521  -13.507441    7.804815
  52 C     6.0000    0    12.011   -0.315698  -15.497909   10.822027
  53 H     1.0000    0     1.008   -3.161228  -17.281451    8.464839
  54 N     7.0000    0    14.007    1.156323  -17.632600   11.142373
  55 C     6.0000    0    12.011   -1.111688  -11.018842   11.558718
  56 H     1.0000    0     1.008   -0.544166   -9.278631   12.481131
  57 C     6.0000    0    12.011    0.349259  -13.159599   11.929142
  58 H     1.0000    0     1.008    2.009384  -13.010878   13.110939
  59 C     6.0000    0    12.011   -9.813083   15.866556    8.052595
  60 C     6.0000    0    12.011  -12.444602   15.841631    8.611539
  61 N     7.0000    0    14.007  -14.577253   15.742345    9.077470
  62 C     6.0000    0    12.011   -8.737583   18.387734    7.488833
  63 O     8.0000    0    15.999   -9.925560   20.334115    7.475001
  64 O     8.0000    0    15.999   -6.220052   18.309802    6.973637
  65 H     1.0000    0     1.008   -5.730916   20.037881    6.629783
  66 C     6.0000    0    12.011   -8.355197   13.729446    8.027916
  67 H     1.0000    0     1.008   -6.383514   14.050643    7.564385
  68 C     6.0000    0    12.011    0.233400  -20.071197   10.275726
  69 H     1.0000    0     1.008   -1.516222  -20.652061   11.234497
  70 H     1.0000    0     1.008   -0.127141  -20.053698    8.238941
  71 H     1.0000    0     1.008    1.670121  -21.500302   10.637212
  72 C     6.0000    0    12.011    3.266694  -17.584979   12.900877
  73 H     1.0000    0     1.008    4.634686  -16.122085   12.384131
  74 H     1.0000    0     1.008    2.669692  -17.244753   14.862110
  75 H     1.0000    0     1.008    4.240602  -19.397037   12.829653

--------------------------------
INTERNAL COORDINATES (ANGSTROEM)
--------------------------------
 N      0   0   0     0.000000000000     0.00000000     0.00000000
 N      1   0   0     2.755553585289     0.00000000     0.00000000
 C      1   2   0     1.351287862929    60.48768290     0.00000000
 C      2   1   3     1.349873935040    60.58516195     2.47035232
 C      1   2   3     1.319121478902    60.11874009   180.32010199
 C      2   1   3     1.319259311735    60.14356013   183.02117915
 C      3   1   2     1.430801811713   119.35740922   179.50948284
 C      4   2   1     1.435948259444   119.43176401   179.26184299
 C      7   3   1     1.394242798475   116.00697710   177.28400284
 C      9   7   3     1.395353620198   122.91412055     0.54655031
 H      9   7   3     1.082492572769   119.51243179   181.27849835
 H     10   9   7     1.082189745655   117.61777582   178.66760215
 C      5   1   2     1.488672839713   116.06528449   175.54504218
 C     13   5   1     1.401469027485   119.50446576    43.42144329
 C     13   5   1     1.401080470673   121.47688257   226.67057724
 C     14  13   5     1.391486144703   120.51720522   182.10009269
 H     14  13   5     1.083087755494   119.07950896     2.19408460
 C     15  13   5     1.391514305137   120.41329571   176.95417106
 H     15  13   5     1.083304401773   119.95290853   357.76098347
 C     18  15  13     1.393868925581   120.25528196     0.71977002
 H     16  14  13     1.084400721182   119.72673942   180.76985323
 H     18  15  13     1.084282506868   119.62941822   180.76982390
 H     20  18  15     1.084399074926   120.12115985   179.48421402
 C      6   2   1     1.488692296279   116.12626470   175.65887396
 C     24   6   2     1.401301074752   121.53054096   225.62655109
 C     24   6   2     1.401548078876   119.48460692    42.31731052
 C     25  24   6     1.391558227240   120.45997889   177.03437027
 H     25  24   6     1.083259178775   119.96438461   357.84180865
 C     26  24   6     1.391460433286   120.50663653   182.08292262
 H     26  24   6     1.082925629995   119.11975435     1.96889880
 C     27  25  24     1.393821352039   120.23413472     0.63505860
 H     27  25  24     1.084294282056   119.61398524   180.68918385
 H     29  26  24     1.084398055098   119.67306026   180.67046437
 H     31  27  25     1.084467968822   120.11693473   179.46627584
 C      7   3   1     1.459194840520   123.48863157   357.63803661
 C     35   7   3     1.393736732744   125.75679546   191.61316838
 S     35   7   3     1.742527124868   124.35866249    14.04814030
 C     36  35   7     1.398152341235   114.66231074   182.98801293
 H     36  35   7     1.081086492469   122.86481759     3.94075864
 C     38  36  35     1.390180168288   112.97696670   359.90058787
 H     38  36  35     1.080258982744   123.46150279   180.40714961
 C      8   4   2     1.456060087668   123.73886462   356.95370154
 C     42   8   4     1.384594784693   126.03024086   191.99205054
 S     42   8   4     1.759918938247   124.66059622    13.90673693
 C     43  42   8     1.407574416718   114.50841219   182.84546596
 H     43  42   8     1.081791448201   122.99232664     3.07287338
 C     45  43  42     1.380374951453   113.48666349     0.00000000
 H     45  43  42     1.082126138951   123.23888520   178.44789372
 C     47  45  43     1.461381701644   128.30125005   180.31840965
 C     49  47  45     1.405311528274   121.05012561    24.03212332
 C     50  49  47     1.384709022141   122.01627935   180.63811194
 H     50  49  47     1.084255637108   119.49956798     1.87113786
 C     51  50  49     1.414242583647   121.21559024   359.29708897
 H     51  50  49     1.081266227208   118.43950777   180.04255446
 N     53  51  50     1.382598874909   121.53859839   181.48368815
 C     49  47  45     1.404728250624   122.26630255   204.60842341
 H     56  49  47     1.084653498220   119.53901341     1.09888266
 C     56  49  47     1.385436363028   122.01778677   179.60915072
 H     58  56  49     1.081228969460   118.40557294   180.95273225
 C     40  38  36     2.531816672372   107.43569540   179.64442128
 C     60  40  38     1.423666897873    97.44986402   358.94869543
 N     61  60  40     1.156363864750   177.90021856     1.82439361
 C     60  40  38     1.480832863054   147.32749201   179.22759090
 O     63  60  40     1.206695158398   124.75050383   179.55377552
 O     63  60  40     1.360455064638   112.91815681   359.55477897
 H     65  63  60     0.967649047331   105.72247839   179.70840538
 C     60  40  38     1.369054192536    25.61062304   178.73824448
 H     67  60  40     1.085208708913   114.49186739   179.61227350
 C     55  53  51     1.453997636415   119.81598583   350.92648753
 H     69  55  53     1.099596914146   112.66768316   298.42042434
 H     69  55  53     1.094615240210   111.19920101    59.90320604
 H     69  55  53     1.089280315162   109.04682700   178.25090967
 C     55  53  51     1.453867205490   119.80717181   187.26645206
 H     73  55  53     1.094576560822   111.12286443   300.84476417
 H     73  55  53     1.099696191500   112.71986236    62.31269121
 H     73  55  53     1.089273144349   109.02750414   182.51119735

---------------------------
INTERNAL COORDINATES (A.U.)
---------------------------
 N      0   0   0     0.000000000000     0.00000000     0.00000000
 N      1   0   0     5.207241623541     0.00000000     0.00000000
 C      1   2   0     2.553563989028    60.48768290     0.00000000
 C      2   1   3     2.550892052544    60.58516195     2.47035232
 C      1   2   3     2.492778332498    60.11874009   180.32010199
 C      2   1   3     2.493038798805    60.14356013   183.02117915
 C      3   1   2     2.703823576055   119.35740922   179.50948284
 C      4   2   1     2.713548952830   119.43176401   179.26184299
 C      7   3   1     2.634737053310   116.00697710   177.28400284
 C      9   7   3     2.636836202150   122.91412055     0.54655031
 H      9   7   3     2.045614504537   119.51243179   181.27849835
 H     10   9   7     2.045042244225   117.61777582   178.66760215
 C      5   1   2     2.813183970065   116.06528449   175.54504218
 C     13   5   1     2.648392647120   119.50446576    43.42144329
 C     13   5   1     2.647658381157   121.47688257   226.67057724
 C     14  13   5     2.629527732634   120.51720522   182.10009269
 H     14  13   5     2.046739236886   119.07950896     2.19408460
 C     15  13   5     2.629580948142   120.41329571   176.95417106
 H     15  13   5     2.047148639022   119.95290853   357.76098347
 C     18  15  13     2.634030535931   120.25528196     0.71977002
 H     16  14  13     2.049220382461   119.72673942   180.76985323
 H     18  15  13     2.048996989782   119.62941822   180.76982390
 H     20  18  15     2.049217271487   120.12115985   179.48421402
 C      6   2   1     2.813220737645   116.12626470   175.65887396
 C     24   6   2     2.648075262450   121.53054096   225.62655109
 C     24   6   2     2.648542032598   119.48460692    42.31731052
 C     25  24   6     2.629663948889   120.45997889   177.03437027
 H     25  24   6     2.047063179941   119.96438461   357.84180865
 C     26  24   6     2.629479145098   120.50663653   182.08292262
 H     26  24   6     2.046432864095   119.11975435     1.96889880
 C     27  25  24     2.633940634966   120.23413472     0.63505860
 H     27  25  24     2.049019241663   119.61398524   180.68918385
 H     29  26  24     2.049215344292   119.67306026   180.67046437
 H     31  27  25     2.049347462083   120.11693473   179.46627584
 C      7   3   1     2.757478624614   123.48863157   357.63803661
 C     35   7   3     2.633780727672   125.75679546   191.61316838
 S     35   7   3     3.292899046929   124.35866249    14.04814030
 C     36  35   7     2.642125018434   114.66231074   182.98801293
 H     36  35   7     2.042957397849   122.86481759     3.94075864
 C     38  36  35     2.627059794872   112.97696670   359.90058787
 H     38  36  35     2.041393631095   123.46150279   180.40714961
 C      8   4   2     2.751554800226   123.73886462   356.95370154
 C     42   8   4     2.616504949526   126.03024086   191.99205054
 S     42   8   4     3.325764811188   124.66059622    13.90673693
 C     43  42   8     2.659930160712   114.50841219   182.84546596
 H     43  42   8     2.044289571117   122.99232664     3.07287338
 C     45  43  42     2.608530620372   113.48666349     0.00000000
 H     45  43  42     2.044922044974   123.23888520   178.44789372
 C     47  45  43     2.761611193231   128.30125005   180.31840965
 C     49  47  45     2.655653921280   121.05012561    24.03212332
 C     50  49  47     2.616720827017   122.01627935   180.63811194
 H     50  49  47     2.048946213294   119.49956798     1.87113786
 C     51  50  49     2.672531170022   121.21559024   359.29708897
 H     51  50  49     2.043297047281   118.43950777   180.04255446
 N     53  51  50     2.612733226646   121.53859839   181.48368815
 C     49  47  45     2.654551686261   122.26630255   204.60842341
 H     56  49  47     2.049698061835   119.53901341     1.09888266
 C     56  49  47     2.618095302099   122.01778677   179.60915072
 H     58  56  49     2.043226640342   118.40557294   180.95273225
 C     40  38  36     4.784440132079   107.43569540   179.64442128
 C     60  40  38     2.690340542910    97.44986402   358.94869543
 N     61  60  40     2.185211015541   177.90021856     1.82439361
 C     60  40  38     2.798368561282   147.32749201   179.22759090
 O     63  60  40     2.280323376500   124.75050383   179.55377552
 O     63  60  40     2.570887489673   112.91815681   359.55477897
 H     65  63  60     1.828591693205   105.72247839   179.70840538
 C     60  40  38     2.587137486389    25.61062304   178.73824448
 H     67  60  40     2.050747257991   114.49186739   179.61227350
 C     55  53  51     2.747657332193   119.81598583   350.92648753
 H     69  55  53     2.077937025441   112.66768316   298.42042434
 H     69  55  53     2.068523026013   111.19920101    59.90320604
 H     69  55  53     2.058441478728   109.04682700   178.25090967
 C     55  53  51     2.747410853466   119.80717181   187.26645206
 H     73  55  53     2.068449932562   111.12286443   300.84476417
 H     73  55  53     2.078124632452   112.71986236    62.31269121
 H     73  55  53     2.058427927855   109.02750414   182.51119735

---------------------
BASIS SET INFORMATION
---------------------
There are 5 groups of distinct atoms

 Group   1 Type N   : 11s5p1d contracted to 4s3p1d pattern {6311/311/1}
 Group   2 Type C   : 11s5p1d contracted to 4s3p1d pattern {6311/311/1}
 Group   3 Type H   : 5s1p contracted to 3s1p pattern {311/1}
 Group   4 Type S   : 13s9p1d contracted to 6s5p1d pattern {631111/42111/1}
 Group   5 Type O   : 11s5p1d contracted to 4s3p1d pattern {6311/311/1}

Atom   0N    basis set group =>   1
Atom   1N    basis set group =>   1
Atom   2C    basis set group =>   2
Atom   3C    basis set group =>   2
Atom   4C    basis set group =>   2
Atom   5C    basis set group =>   2
Atom   6C    basis set group =>   2
Atom   7C    basis set group =>   2
Atom   8C    basis set group =>   2
Atom   9C    basis set group =>   2
Atom  10H    basis set group =>   3
Atom  11H    basis set group =>   3
Atom  12C    basis set group =>   2
Atom  13C    basis set group =>   2
Atom  14C    basis set group =>   2
Atom  15C    basis set group =>   2
Atom  16H    basis set group =>   3
Atom  17C    basis set group =>   2
Atom  18H    basis set group =>   3
Atom  19C    basis set group =>   2
Atom  20H    basis set group =>   3
Atom  21H    basis set group =>   3
Atom  22H    basis set group =>   3
Atom  23C    basis set group =>   2
Atom  24C    basis set group =>   2
Atom  25C    basis set group =>   2
Atom  26C    basis set group =>   2
Atom  27H    basis set group =>   3
Atom  28C    basis set group =>   2
Atom  29H    basis set group =>   3
Atom  30C    basis set group =>   2
Atom  31H    basis set group =>   3
Atom  32H    basis set group =>   3
Atom  33H    basis set group =>   3
Atom  34C    basis set group =>   2
Atom  35C    basis set group =>   2
Atom  36S    basis set group =>   4
Atom  37C    basis set group =>   2
Atom  38H    basis set group =>   3
Atom  39C    basis set group =>   2
Atom  40H    basis set group =>   3
Atom  41C    basis set group =>   2
Atom  42C    basis set group =>   2
Atom  43S    basis set group =>   4
Atom  44C    basis set group =>   2
Atom  45H    basis set group =>   3
Atom  46C    basis set group =>   2
Atom  47H    basis set group =>   3
Atom  48C    basis set group =>   2
Atom  49C    basis set group =>   2
Atom  50C    basis set group =>   2
Atom  51H    basis set group =>   3
Atom  52C    basis set group =>   2
Atom  53H    basis set group =>   3
Atom  54N    basis set group =>   1
Atom  55C    basis set group =>   2
Atom  56H    basis set group =>   3
Atom  57C    basis set group =>   2
Atom  58H    basis set group =>   3
Atom  59C    basis set group =>   2
Atom  60C    basis set group =>   2
Atom  61N    basis set group =>   1
Atom  62C    basis set group =>   2
Atom  63O    basis set group =>   5
Atom  64O    basis set group =>   5
Atom  65H    basis set group =>   3
Atom  66C    basis set group =>   2
Atom  67H    basis set group =>   3
Atom  68C    basis set group =>   2
Atom  69H    basis set group =>   3
Atom  70H    basis set group =>   3
Atom  71H    basis set group =>   3
Atom  72C    basis set group =>   2
Atom  73H    basis set group =>   3
Atom  74H    basis set group =>   3
Atom  75H    basis set group =>   3
---------------------------------
AUXILIARY/J BASIS SET INFORMATION
---------------------------------
There are 5 groups of distinct atoms

 Group   1 Type N   : 12s5p4d2f1g contracted to 6s4p3d1f1g pattern {711111/2111/211/2/1}
 Group   2 Type C   : 12s5p4d2f1g contracted to 6s4p3d1f1g pattern {711111/2111/211/2/1}
 Group   3 Type H   : 5s2p1d contracted to 3s1p1d pattern {311/2/1}
 Group   4 Type S   : 14s5p5d2f1g contracted to 8s4p3d1f1g pattern {71111111/2111/311/2/1}
 Group   5 Type O   : 12s5p4d2f1g contracted to 6s4p3d1f1g pattern {711111/2111/211/2/1}

Atom   0N    basis set group =>   1
Atom   1N    basis set group =>   1
Atom   2C    basis set group =>   2
Atom   3C    basis set group =>   2
Atom   4C    basis set group =>   2
Atom   5C    basis set group =>   2
Atom   6C    basis set group =>   2
Atom   7C    basis set group =>   2
Atom   8C    basis set group =>   2
Atom   9C    basis set group =>   2
Atom  10H    basis set group =>   3
Atom  11H    basis set group =>   3
Atom  12C    basis set group =>   2
Atom  13C    basis set group =>   2
Atom  14C    basis set group =>   2
Atom  15C    basis set group =>   2
Atom  16H    basis set group =>   3
Atom  17C    basis set group =>   2
Atom  18H    basis set group =>   3
Atom  19C    basis set group =>   2
Atom  20H    basis set group =>   3
Atom  21H    basis set group =>   3
Atom  22H    basis set group =>   3
Atom  23C    basis set group =>   2
Atom  24C    basis set group =>   2
Atom  25C    basis set group =>   2
Atom  26C    basis set group =>   2
Atom  27H    basis set group =>   3
Atom  28C    basis set group =>   2
Atom  29H    basis set group =>   3
Atom  30C    basis set group =>   2
Atom  31H    basis set group =>   3
Atom  32H    basis set group =>   3
Atom  33H    basis set group =>   3
Atom  34C    basis set group =>   2
Atom  35C    basis set group =>   2
Atom  36S    basis set group =>   4
Atom  37C    basis set group =>   2
Atom  38H    basis set group =>   3
Atom  39C    basis set group =>   2
Atom  40H    basis set group =>   3
Atom  41C    basis set group =>   2
Atom  42C    basis set group =>   2
Atom  43S    basis set group =>   4
Atom  44C    basis set group =>   2
Atom  45H    basis set group =>   3
Atom  46C    basis set group =>   2
Atom  47H    basis set group =>   3
Atom  48C    basis set group =>   2
Atom  49C    basis set group =>   2
Atom  50C    basis set group =>   2
Atom  51H    basis set group =>   3
Atom  52C    basis set group =>   2
Atom  53H    basis set group =>   3
Atom  54N    basis set group =>   1
Atom  55C    basis set group =>   2
Atom  56H    basis set group =>   3
Atom  57C    basis set group =>   2
Atom  58H    basis set group =>   3
Atom  59C    basis set group =>   2
Atom  60C    basis set group =>   2
Atom  61N    basis set group =>   1
Atom  62C    basis set group =>   2
Atom  63O    basis set group =>   5
Atom  64O    basis set group =>   5
Atom  65H    basis set group =>   3
Atom  66C    basis set group =>   2
Atom  67H    basis set group =>   3
Atom  68C    basis set group =>   2
Atom  69H    basis set group =>   3
Atom  70H    basis set group =>   3
Atom  71H    basis set group =>   3
Atom  72C    basis set group =>   2
Atom  73H    basis set group =>   3
Atom  74H    basis set group =>   3
Atom  75H    basis set group =>   3
------------------------------------------------------------------------------
                             ORCA STARTUP CALCULATIONS
                           -- RI-GTO INTEGRALS CHOSEN --
------------------------------------------------------------------------------
------------------------------------------------------------------------------
                   ___                                                        
                  /   \      - P O W E R E D   B Y -                         
                 /     \                                                     
                 |  |  |   _    _      __       _____    __    __             
                 |  |  |  | |  | |    /  \     |  _  \  |  |  /  |          
                  \  \/   | |  | |   /    \    | | | |  |  | /  /          
                 / \  \   | |__| |  /  /\  \   | |_| |  |  |/  /          
                |  |  |   |  __  | /  /__\  \  |    /   |      \           
                |  |  |   | |  | | |   __   |  |    \   |  |\   \          
                \     /   | |  | | |  |  |  |  | |\  \  |  | \   \       
                 \___/    |_|  |_| |__|  |__|  |_| \__\ |__|  \__/        
                                                                              
                      - O R C A' S   B I G   F R I E N D -                    
                                      &                                       
                       - I N T E G R A L  F E E D E R -                       
                                                                              
 v1 FN, 2020, v2 2021, v3 2022-2024                                           
------------------------------------------------------------------------------


----------------------
SHARK INTEGRAL PACKAGE
----------------------

Number of atoms                             ...     76
Number of basis functions                   ...   1048
Number of shells                            ...    504
Maximum angular momentum                    ...      2
Integral batch strategy                     ... SHARK/LIBINT Hybrid
RI-J (if used) integral strategy            ... SPLIT-RIJ (Revised 2003 algorithm where possible)
Printlevel                                  ...      1
Contraction scheme used                     ... SEGMENTED contraction
Prescreening option                         ... SCHWARTZ
   Thresh                                   ... 2.500e-11
   Tcut                                     ... 2.500e-12
   Tpresel                                  ... 2.500e-12 
Coulomb Range Separation                    ... NOT USED
Exchange Range Separation                   ... NOT USED
Multipole approximations                    ... NOT USED
Finite Nucleus Model                        ... NOT USED
CABS basis                                  ... NOT available
Auxiliary Coulomb fitting basis             ... AVAILABLE
   # of basis functions in Aux-J            ...   2664
   # of shells in Aux-J                     ...    864
   Maximum angular momentum in Aux-J        ...      4
Auxiliary J/K fitting basis                 ... NOT available
Auxiliary Correlation fitting basis         ... NOT available
Auxiliary 'external' fitting basis          ... NOT available

Checking pre-screening integrals            ... done (  0.0 sec) Dimension = 504
Check shell pair data                       ... done (  0.0 sec)
Shell pair information
Shell pair cut-off parameter TPreSel        ...   2.5e-12
Total number of shell pairs                 ...    127260
Shell pairs after pre-screening             ...     47265
Total number of primitive shell pairs       ...    497606
Primitive shell pairs kept                  ...    106218
          la=0 lb=0:  13929 shell pairs
          la=1 lb=0:  18813 shell pairs
          la=1 lb=1:   6453 shell pairs
          la=2 lb=0:   4534 shell pairs
          la=2 lb=1:   3128 shell pairs
          la=2 lb=2:    408 shell pairs

Calculating one electron integrals          ... done (  0.2 sec)
Calculating RI/J V-Matrix + Cholesky decomp.... done (  0.2 sec)
Calculating Nuclear repulsion               ... done (  0.0 sec) ENN=   5647.877576610078 Eh

Diagonalization of the overlap matrix:
Smallest eigenvalue                        ... 9.002e-05
Time for diagonalization                   ...    0.110 sec
Threshold for overlap eigenvalues          ... 1.000e-07
Number of eigenvalues below threshold      ... 0
Time for construction of square roots      ...    0.065 sec
Total time needed                          ...    0.177 sec

-------------------
DFT GRID GENERATION
-------------------

General Integration Accuracy     IntAcc      ... 4.388
Radial Grid Type                 RadialGrid  ... OptM3 with GC (2021)
Angular Grid (max. ang.)         AngularGrid ... 4 (Lebedev-302)
Angular grid pruning method      GridPruning ... 4 (adaptive)
Weight generation scheme         WeightScheme... mBecke (2022)
Basis function cutoff            BFCut       ... 1.0000e-11
Integration weight cutoff        WCut        ... 1.0000e-14
Partially contracted basis set               ... off
Rotationally invariant grid construction     ... off
Angular grids for H and He will be reduced by one unit

Total number of grid points                  ...   377867
Total number of batches                      ...     5946
Average number of points per batch           ...       63
Average number of grid points per atom       ...     4972
Initializing property integral containers    ... done (  0.0 sec)

SHARK setup successfully completed in   4.5 seconds

Maximum memory used throughout the entire STARTUP-calculation: 199.6 MB
-------------------------------------------------------------------------------
                                 ORCA GUESS
                   Start orbitals & Density for SCF / CASSCF
-------------------------------------------------------------------------------

------------
SCF SETTINGS
------------
Hamiltonian:
 Density Functional     Method          .... DFT(GTOs)
 Exchange Functional    Exchange        .... PBE
   PBE kappa parameter   XKappa         ....  0.804000
   PBE mue parameter    XMuePBE         ....  0.219520
 Correlation Functional Correlation     .... PBE
   PBE beta parameter  CBetaPBE         ....  0.066725
 LDA part of GGA corr.  LDAOpt          .... PW91-LDA
 Gradients option       PostSCFGGA      .... off
   NL short-range parameter             ....  6.400000
 RI-approximation to the Coulomb term is turned on
   Number of AuxJ basis functions       .... 2664


General Settings:
 Integral files         IntName         .... QX-DMA
 Hartree-Fock type      HFTyp           .... RHF
 Total Charge           Charge          ....    0
 Multiplicity           Mult            ....    1
 Number of Electrons    NEL             ....  344
 Basis Dimension        Dim             .... 1048
 Nuclear Repulsion      ENuc            ....   5647.8775766101 Eh

Convergence Acceleration:
 AO-DIIS                CNVDIIS         .... on
   Start iteration      DIISMaxIt       ....    12
   Startup error        DIISStart       ....  0.200000
   # of expansion vecs  DIISMaxEq       ....     5
   Bias factor          DIISBfac        ....   1.050
   Max. coefficient     DIISMaxC        ....  10.000
 MO-DIIS                CNVKDIIS        .... off
 Trust-Rad. Augm. Hess. CNVTRAH         .... auto
   Auto Start mean grad. ratio tolernc. ....  1.125000
   Auto Start start iteration           ....    50
   Auto Start num. interpolation iter.  ....    10
   Max. Number of Micro iterations      ....    24
   Max. Number of Macro iterations      .... Maxiter - #DIIS iter
   Number of Davidson start vectors     ....     2
   Converg. threshold    (grad. norm)   ....   1.000e-05
   Grad. Scal. Fac. for Micro threshold ....   0.100
   Minimum threshold for Micro iter.    ....   1.000e-02
   NR start threshold (gradient norm)   ....   1.000e-04
   Initial trust radius                 ....   0.400
   Minimum AH scaling param. (alpha)    ....   1.000
   Maximum AH scaling param. (alpha)    .... 1000.000
   Quad. conv. algorithm                .... NR
   White noise on init. David. guess    .... on
   Maximum white noise                  ....   0.010
   Pseudo random numbers                .... off
   Inactive MOs                         .... canonical
   Orbital update algorithm             .... Taylor
   Preconditioner                       .... Diag
   Full preconditioner red. dimension   ....   250
 SOSCF                  CNVSOSCF        .... on
   Start iteration      SOSCFMaxIt      ....   150
   Startup grad/error   SOSCFStart      ....  0.003300
   Hessian update       SOSCFHessUp     .... L-BFGS
 Level Shifting         CNVShift        .... on
   Level shift para.    LevelShift      ....    0.2500
   Turn off err/grad.   ShiftErr        ....    0.0010
 Zerner damping         CNVZerner       .... off
 Static damping         CNVDamp         .... on
   Fraction old density DampFac         ....    0.7000
   Max. Damping (<1)    DampMax         ....    0.9800
   Min. Damping (>=0)   DampMin         ....    0.0000
   Turn off err/grad.   DampErr         ....    0.1000

SCF Procedure:
 Maximum # iterations   MaxIter         ....   125
 SCF integral mode      SCFMode         .... Direct
   Integral package                     .... SHARK and LIBINT hybrid scheme
 Reset frequency        DirectResetFreq ....    20
 Integral Threshold     Thresh          ....  2.500e-11 Eh
 Primitive CutOff       TCut            ....  2.500e-12 Eh

Convergence Tolerance:
 Convergence Check Mode ConvCheckMode   .... Total+1el-Energy
 Convergence forced     ConvForced      .... 1
 Energy Change          TolE            ....  1.000e-08 Eh
 1-El. energy change                    ....  1.000e-05 Eh
 Orbital Gradient       TolG            ....  1.000e-05
 Orbital Rotation angle TolX            ....  1.000e-05
 DIIS Error             TolErr          ....  5.000e-07

------------------------------
INITIAL GUESS: MODEL POTENTIAL
------------------------------
Loading Hartree-Fock densities                     ... done
Calculating cut-offs                               ... done
Initializing the effective Hamiltonian             ... done
Setting up the integral package (SHARK)            ... done
Starting the Coulomb interaction                   ... done (   3.0 sec)
Making the grid                                    ... done (   1.0 sec)
Mapping shells                                     ... done
Starting the XC term evaluation                    ... done (   0.8 sec)
  promolecular density results
     # of electrons  =    343.987979923
     EX              =   -305.140801571
     EC              =    -11.752447150
     EX+EC           =   -316.893248722
Transforming the Hamiltonian                       ... done (   0.1 sec)
Diagonalizing the Hamiltonian                      ... done (   0.1 sec)
Back transforming the eigenvectors                 ... done (   0.1 sec)
Now organizing SCF variables                       ... done
                      ------------------
                      INITIAL GUESS DONE (   5.2 sec)
                      ------------------
             **** ENERGY FILE WAS UPDATED (QX-DMA.en.tmp) ****
Finished Guess after   5.5 sec
Maximum memory used throughout the entire GUESS-calculation: 128.8 MB

-------------------------------------------------------------------------------------------
                                      ORCA LEAN-SCF
                              memory conserving SCF solver
-------------------------------------------------------------------------------------------

--------------------
CPCM SOLVATION MODEL
--------------------
CPCM parameters:
  Epsilon                                         ...       7.5650
  Refrac                                          ...       1.4050
  Rsolv                                           ...       1.3000
  Surface type                                    ... GAUSSIAN VDW
  Discretization scheme                           ... Constant charge density
    Threshold for H atoms                         ...       5.0000 (charges/Ang^2)
    Threshold for non-H atoms                     ...       5.0000 (charges/Ang^2)
  Epsilon function type                           ...         CPCM
Solvent:                                          ... TETRAHYDROFURAN
Radii:
  Scheme                                          ... Element-dependent radii
  Radius for N  used is    3.5149 Bohr (=   1.8600 Ang.)
  Radius for C  used is    3.8550 Bohr (=   2.0400 Ang.)
  Radius for H  used is    2.4944 Bohr (=   1.3200 Ang.)
  Radius for S  used is    4.0818 Bohr (=   2.1600 Ang.)
  Radius for O  used is    3.4469 Bohr (=   1.8240 Ang.)
Calculating surface                               ...        done! (  0.0s)
Cavity surface points                             ...         6908
Cavity Volume                                     ...    5083.6184
Cavity Surface-area                               ...    2437.1551
Calculating surface distance matrix               ...        done! (  0.2s)
Performing Cholesky decomposition & store         ...        done! (  1.7s)
Overall time for CPCM initialization              ...                 1.9s

----------------------------------------D-I-I-S--------------------------------------------
Iteration    Energy (Eh)           Delta-E    RMSDP     MaxDP     DIISErr   Damp  Time(sec)
-------------------------------------------------------------------------------------------
               ***  Starting incremental Fock matrix formation  ***
    1    -2703.8793896094439333     0.00e+00  1.11e-03  1.63e-01  2.93e-01  0.700  17.7
Warning: op=0 Small HOMO/LUMO gap (   0.017) - skipping pre-diagonalization
         Will do a full diagonalization
    2    -2704.3245904693239936    -4.45e-01  7.49e-04  8.66e-02  8.69e-02  0.700  16.6
                               ***Turning on AO-DIIS***
    3    -2704.4779628233327458    -1.53e-01  3.12e-04  2.24e-02  3.18e-02  0.700  16.2
    4    -2704.5692820914800905    -9.13e-02  5.46e-04  5.83e-02  1.65e-02  0.000  15.6
    5    -2704.7757876249879700    -2.07e-01  1.53e-04  1.85e-02  1.08e-02  0.000  15.6
    6    -2704.7785256163560916    -2.74e-03  5.06e-05  3.56e-03  3.37e-03  0.000  15.0
                              *** Initializing SOSCF ***
---------------------------------------S-O-S-C-F--------------------------------------
Iteration    Energy (Eh)           Delta-E    RMSDP     MaxDP     MaxGrad    Time(sec)
--------------------------------------------------------------------------------------
    7    -2704.7788620010605882    -3.36e-04  2.06e-05  1.47e-03  1.88e-03    14.5
               *** Restarting incremental Fock matrix formation ***
    8    -2704.7789167194505353    -5.47e-05  2.21e-05  1.46e-03  5.01e-04    17.6
    9    -2704.7789334147246336    -1.67e-05  1.70e-05  1.18e-03  4.45e-04    13.3
   10    -2704.7789451400158214    -1.17e-05  8.91e-06  1.00e-03  2.66e-04    13.3
   11    -2704.7789475436975408    -2.40e-06  5.81e-06  6.27e-04  1.60e-04    12.8
   12    -2704.7789494417675087    -1.90e-06  3.66e-06  3.14e-04  7.80e-05    12.7
   13    -2704.7789502412242655    -7.99e-07  2.02e-06  1.60e-04  6.15e-05    12.3
   14    -2704.7789503395115389    -9.83e-08  1.34e-06  1.15e-04  5.25e-05    11.9
   15    -2704.7789504549737103    -1.15e-07  8.10e-07  7.58e-05  1.62e-05    11.7
   16    -2704.7789505345199359    -7.95e-08  4.73e-07  5.40e-05  1.23e-05    11.5
   17    -2704.7789504993825176     3.51e-08  2.47e-07  1.84e-05  5.83e-06    10.9
   18    -2704.7789504945749286     4.81e-09  1.46e-07  1.65e-05  4.63e-06    10.3
                 **** Energy Check signals convergence ****

               *****************************************************
               *                     SUCCESS                       *
               *           SCF CONVERGED AFTER  18 CYCLES          *
               *****************************************************

             **** ENERGY FILE WAS UPDATED (QX-DMA.en.tmp) ****

----------------
TOTAL SCF ENERGY
----------------

Total Energy       :      -2704.77895049457493 Eh          -73600.77703 eV

Components:
Nuclear Repulsion  :       5647.87757661007799 Eh          153686.56213 eV
Electronic Energy  :      -8352.62008384968431 Eh         -227286.34750 eV
One Electron Energy:     -14936.61150736095442 Eh         -406445.86242 eV
Two Electron Energy:       6583.99142351126920 Eh          179159.51493 eV
CPCM Dielectric    :         -0.03644325496739 Eh              -0.99167 eV

Virial components:
Potential Energy   :      -5403.06184941572519 Eh         -147024.78752 eV
Kinetic Energy     :       2698.28289892115026 Eh           73424.01048 eV
Virial Ratio       :          2.00240747609379

DFT components:
N(Alpha)           :      172.000100471674 electrons
N(Beta)            :      172.000100471674 electrons
N(Total)           :      344.000200943348 electrons
E(X)               :     -309.741979793477 Eh       
E(C)               :      -11.738362025449 Eh       
E(XC)              :     -321.480341818926 Eh       

CPCM Solvation Model Properties:
Surface-charge          :         -0.04126783666539
Corrected charge        :          0.00000000000000
Outlying charge corr.   :          0.00005510371818 Eh               0.00150 eV
Free-energy (cav+disp)  :  This term is not implemented in the current solvation scheme

---------------
SCF CONVERGENCE
---------------

  Last Energy change         ...   -4.8076e-09  Tolerance :   1.0000e-08
  Last MAX-Density change    ...    1.6509e-05  Tolerance :   1.0000e-07
  Last RMS-Density change    ...    1.4649e-07  Tolerance :   5.0000e-09
  Last DIIS Error            ...    1.8774e-03  Tolerance :   5.0000e-07
  Last Orbital Gradient      ...    4.6286e-06  Tolerance :   1.0000e-05
  Last Orbital Rotation      ...    9.0656e-06  Tolerance :   1.0000e-05


----------------
ORBITAL ENERGIES
----------------

  NO   OCC          E(Eh)            E(eV) 
   0   2.0000     -88.076325     -2396.6787 
   1   2.0000     -88.064025     -2396.3439 
   2   2.0000     -18.786699      -511.2121 
   3   2.0000     -18.734063      -509.7798 
   4   2.0000     -14.012189      -381.2910 
   5   2.0000     -14.002559      -381.0290 
   6   2.0000     -14.001719      -381.0062 
   7   2.0000     -13.978951      -380.3866 
   8   2.0000     -10.012888      -272.4645 
   9   2.0000      -9.949561      -270.7413 
  10   2.0000      -9.948009      -270.6991 
  11   2.0000      -9.941073      -270.5103 
  12   2.0000      -9.941047      -270.5096 
  13   2.0000      -9.940248      -270.4879 
  14   2.0000      -9.931019      -270.2368 
  15   2.0000      -9.929463      -270.1944 
  16   2.0000      -9.929202      -270.1873 
  17   2.0000      -9.927005      -270.1276 
  18   2.0000      -9.925576      -270.0886 
  19   2.0000      -9.923435      -270.0304 
  20   2.0000      -9.921312      -269.9726 
  21   2.0000      -9.919650      -269.9274 
  22   2.0000      -9.918477      -269.8955 
  23   2.0000      -9.906066      -269.5578 
  24   2.0000      -9.905974      -269.5553 
  25   2.0000      -9.905165      -269.5332 
  26   2.0000      -9.904547      -269.5164 
  27   2.0000      -9.903224      -269.4804 
  28   2.0000      -9.900808      -269.4147 
  29   2.0000      -9.899323      -269.3743 
  30   2.0000      -9.898356      -269.3480 
  31   2.0000      -9.894604      -269.2459 
  32   2.0000      -9.891948      -269.1736 
  33   2.0000      -9.891378      -269.1581 
  34   2.0000      -9.890644      -269.1381 
  35   2.0000      -9.890064      -269.1223 
  36   2.0000      -9.889806      -269.1153 
  37   2.0000      -9.889377      -269.1036 
  38   2.0000      -9.888931      -269.0915 
  39   2.0000      -9.888536      -269.0807 
  40   2.0000      -9.888456      -269.0786 
  41   2.0000      -9.888094      -269.0687 
  42   2.0000      -9.887991      -269.0659 
  43   2.0000      -9.886294      -269.0197 
  44   2.0000      -9.886194      -269.0170 
  45   2.0000      -9.884200      -268.9628 
  46   2.0000      -9.880835      -268.8712 
  47   2.0000      -9.880778      -268.8696 
  48   2.0000      -7.710225      -209.8059 
  49   2.0000      -7.698059      -209.4748 
  50   2.0000      -5.731826      -155.9709 
  51   2.0000      -5.727335      -155.8487 
  52   2.0000      -5.724430      -155.7697 
  53   2.0000      -5.719751      -155.6423 
  54   2.0000      -5.715230      -155.5193 
  55   2.0000      -5.712055      -155.4329 
  56   2.0000      -1.021955       -27.8088 
  57   2.0000      -0.937438       -25.5090 
  58   2.0000      -0.919106       -25.0102 
  59   2.0000      -0.876193       -23.8424 
  60   2.0000      -0.852590       -23.2002 
  61   2.0000      -0.838890       -22.8274 
  62   2.0000      -0.827618       -22.5206 
  63   2.0000      -0.817401       -22.2426 
  64   2.0000      -0.802623       -21.8405 
  65   2.0000      -0.787853       -21.4386 
  66   2.0000      -0.787446       -21.4275 
  67   2.0000      -0.777166       -21.1478 
  68   2.0000      -0.763637       -20.7796 
  69   2.0000      -0.732376       -19.9290 
  70   2.0000      -0.729981       -19.8638 
  71   2.0000      -0.702585       -19.1183 
  72   2.0000      -0.694580       -18.9005 
  73   2.0000      -0.686950       -18.6929 
  74   2.0000      -0.686160       -18.6714 
  75   2.0000      -0.684976       -18.6391 
  76   2.0000      -0.682801       -18.5800 
  77   2.0000      -0.679842       -18.4994 
  78   2.0000      -0.674365       -18.3504 
  79   2.0000      -0.668729       -18.1970 
  80   2.0000      -0.655640       -17.8409 
  81   2.0000      -0.648570       -17.6485 
  82   2.0000      -0.620172       -16.8757 
  83   2.0000      -0.615706       -16.7542 
  84   2.0000      -0.609867       -16.5953 
  85   2.0000      -0.592998       -16.1363 
  86   2.0000      -0.587465       -15.9857 
  87   2.0000      -0.571642       -15.5552 
  88   2.0000      -0.556076       -15.1316 
  89   2.0000      -0.552567       -15.0361 
  90   2.0000      -0.551187       -14.9986 
  91   2.0000      -0.548084       -14.9141 
  92   2.0000      -0.543322       -14.7845 
  93   2.0000      -0.533105       -14.5065 
  94   2.0000      -0.519294       -14.1307 
  95   2.0000      -0.514619       -14.0035 
  96   2.0000      -0.508751       -13.8438 
  97   2.0000      -0.501112       -13.6359 
  98   2.0000      -0.492491       -13.4014 
  99   2.0000      -0.486983       -13.2515 
 100   2.0000      -0.480688       -13.0802 
 101   2.0000      -0.477950       -13.0057 
 102   2.0000      -0.474784       -12.9195 
 103   2.0000      -0.464196       -12.6314 
 104   2.0000      -0.456779       -12.4296 
 105   2.0000      -0.455689       -12.3999 
 106   2.0000      -0.441980       -12.0269 
 107   2.0000      -0.437274       -11.8988 
 108   2.0000      -0.431075       -11.7301 
 109   2.0000      -0.424280       -11.5453 
 110   2.0000      -0.423407       -11.5215 
 111   2.0000      -0.417613       -11.3638 
 112   2.0000      -0.414492       -11.2789 
 113   2.0000      -0.412507       -11.2249 
 114   2.0000      -0.410788       -11.1781 
 115   2.0000      -0.409909       -11.1542 
 116   2.0000      -0.403720       -10.9858 
 117   2.0000      -0.402654       -10.9568 
 118   2.0000      -0.401470       -10.9246 
 119   2.0000      -0.394072       -10.7232 
 120   2.0000      -0.389122       -10.5885 
 121   2.0000      -0.386486       -10.5168 
 122   2.0000      -0.381383       -10.3779 
 123   2.0000      -0.379021       -10.3137 
 124   2.0000      -0.378315       -10.2945 
 125   2.0000      -0.377200       -10.2641 
 126   2.0000      -0.372291       -10.1305 
 127   2.0000      -0.367746       -10.0069 
 128   2.0000      -0.367337        -9.9958 
 129   2.0000      -0.363170        -9.8824 
 130   2.0000      -0.361469        -9.8361 
 131   2.0000      -0.360017        -9.7966 
 132   2.0000      -0.352936        -9.6039 
 133   2.0000      -0.351291        -9.5591 
 134   2.0000      -0.349153        -9.5009 
 135   2.0000      -0.348688        -9.4883 
 136   2.0000      -0.345747        -9.4083 
 137   2.0000      -0.342900        -9.3308 
 138   2.0000      -0.339880        -9.2486 
 139   2.0000      -0.335609        -9.1324 
 140   2.0000      -0.334744        -9.1088 
 141   2.0000      -0.331665        -9.0251 
 142   2.0000      -0.326082        -8.8732 
 143   2.0000      -0.325345        -8.8531 
 144   2.0000      -0.323164        -8.7937 
 145   2.0000      -0.321018        -8.7354 
 146   2.0000      -0.317401        -8.6369 
 147   2.0000      -0.314742        -8.5646 
 148   2.0000      -0.310360        -8.4453 
 149   2.0000      -0.307436        -8.3658 
 150   2.0000      -0.305575        -8.3151 
 151   2.0000      -0.304651        -8.2900 
 152   2.0000      -0.303046        -8.2463 
 153   2.0000      -0.293500        -7.9865 
 154   2.0000      -0.288406        -7.8479 
 155   2.0000      -0.283402        -7.7118 
 156   2.0000      -0.273535        -7.4433 
 157   2.0000      -0.266633        -7.2554 
 158   2.0000      -0.258969        -7.0469 
 159   2.0000      -0.255187        -6.9440 
 160   2.0000      -0.244603        -6.6560 
 161   2.0000      -0.243148        -6.6164 
 162   2.0000      -0.240909        -6.5555 
 163   2.0000      -0.237356        -6.4588 
 164   2.0000      -0.234326        -6.3763 
 165   2.0000      -0.234004        -6.3676 
 166   2.0000      -0.228983        -6.2309 
 167   2.0000      -0.220715        -6.0060 
 168   2.0000      -0.216851        -5.9008 
 169   2.0000      -0.215769        -5.8714 
 170   2.0000      -0.194236        -5.2854 
 171   2.0000      -0.165495        -4.5033 
 172   0.0000      -0.128988        -3.5099 
 173   0.0000      -0.108614        -2.9555 
 174   0.0000      -0.085049        -2.3143 
 175   0.0000      -0.074058        -2.0152 
 176   0.0000      -0.051903        -1.4124 
 177   0.0000      -0.050841        -1.3835 
 178   0.0000      -0.042854        -1.1661 
 179   0.0000      -0.041738        -1.1357 
 180   0.0000      -0.038199        -1.0394 
 181   0.0000      -0.036607        -0.9961 
 182   0.0000      -0.024420        -0.6645 
*Only the first 10 virtual orbitals were printed.

                    ********************************
                    * MULLIKEN POPULATION ANALYSIS *
                    ********************************

-----------------------
MULLIKEN ATOMIC CHARGES
-----------------------
   0 N :   -0.389539
   1 N :   -0.379304
   2 C :    0.182926
   3 C :    0.170848
   4 C :    0.176545
   5 C :    0.170721
   6 C :   -0.042511
   7 C :   -0.012106
   8 C :   -0.042646
   9 C :   -0.053367
  10 H :    0.121764
  11 H :    0.119574
  12 C :   -0.173404
  13 C :   -0.039390
  14 C :   -0.036284
  15 C :   -0.117779
  16 H :    0.118288
  17 C :   -0.113356
  18 H :    0.124769
  19 C :   -0.100092
  20 H :    0.121577
  21 H :    0.121560
  22 H :    0.122393
  23 C :   -0.172876
  24 C :   -0.037433
  25 C :   -0.037948
  26 C :   -0.114834
  27 H :    0.124872
  28 C :   -0.119059
  29 H :    0.119257
  30 C :   -0.100618
  31 H :    0.121034
  32 H :    0.120947
  33 H :    0.121715
  34 C :   -0.251087
  35 C :   -0.032813
  36 S :    0.377405
  37 C :   -0.012884
  38 H :    0.130743
  39 C :   -0.336090
  40 H :    0.131835
  41 C :   -0.283351
  42 C :   -0.038422
  43 S :    0.347625
  44 C :   -0.061209
  45 H :    0.122419
  46 C :   -0.316845
  47 H :    0.119449
  48 C :   -0.008335
  49 C :   -0.070011
  50 C :   -0.159307
  51 H :    0.111311
  52 C :    0.258741
  53 H :    0.129611
  54 N :   -0.452678
  55 C :   -0.125146
  56 H :    0.118228
  57 C :   -0.158442
  58 H :    0.130142
  59 C :   -0.192731
  60 C :    0.067534
  61 N :   -0.292660
  62 C :    0.391421
  63 O :   -0.336401
  64 O :   -0.319975
  65 H :    0.282765
  66 C :    0.091300
  67 H :    0.142397
  68 C :   -0.224667
  69 H :    0.141677
  70 H :    0.148227
  71 H :    0.144557
  72 C :   -0.225767
  73 H :    0.148514
  74 H :    0.141895
  75 H :    0.144776
Sum of atomic charges:   -0.0000000

--------------------------------
MULLIKEN REDUCED ORBITAL CHARGES
--------------------------------
  0 N s       :     3.668826  s :     3.668826
      pz      :     1.126000  p :     3.686143
      px      :     1.083924
      py      :     1.476218
      dz2     :     0.003658  d :     0.034570
      dxz     :     0.006573
      dyz     :     0.004232
      dx2y2   :     0.007512
      dxy     :     0.012595

  1 N s       :     3.668781  s :     3.668781
      pz      :     1.117687  p :     3.675766
      px      :     1.078330
      py      :     1.479749
      dz2     :     0.003675  d :     0.034757
      dxz     :     0.006377
      dyz     :     0.004553
      dx2y2   :     0.007951
      dxy     :     0.012201

  2 C s       :     3.032617  s :     3.032617
      pz      :     0.968824  p :     2.690008
      px      :     0.874743
      py      :     0.846441
      dz2     :     0.005156  d :     0.094448
      dxz     :     0.014960
      dyz     :     0.010951
      dx2y2   :     0.035752
      dxy     :     0.027629

  3 C s       :     3.034312  s :     3.034312
      pz      :     0.977211  p :     2.700932
      px      :     0.791357
      py      :     0.932365
      dz2     :     0.005105  d :     0.093907
      dxz     :     0.015149
      dyz     :     0.009891
      dx2y2   :     0.030070
      dxy     :     0.033692

  4 C s       :     3.033725  s :     3.033725
      pz      :     0.924178  p :     2.695147
      px      :     0.848600
      py      :     0.922370
      dz2     :     0.005194  d :     0.094583
      dxz     :     0.015547
      dyz     :     0.009425
      dx2y2   :     0.029741
      dxy     :     0.034676

  5 C s       :     3.032674  s :     3.032674
      pz      :     0.932610  p :     2.702268
      px      :     0.883627
      py      :     0.886031
      dz2     :     0.005107  d :     0.094337
      dxz     :     0.013987
      dyz     :     0.010616
      dx2y2   :     0.037148
      dxy     :     0.027480

  6 C s       :     3.060563  s :     3.060563
      pz      :     1.004153  p :     2.913152
      px      :     1.006543
      py      :     0.902456
      dz2     :     0.004045  d :     0.068796
      dxz     :     0.009761
      dyz     :     0.011186
      dx2y2   :     0.023305
      dxy     :     0.020499

  7 C s       :     3.064996  s :     3.064996
      pz      :     0.964805  p :     2.876775
      px      :     1.004764
      py      :     0.907206
      dz2     :     0.003960  d :     0.070335
      dxz     :     0.009868
      dyz     :     0.012730
      dx2y2   :     0.020209
      dxy     :     0.023568

  8 C s       :     3.181053  s :     3.181053
      pz      :     0.956957  p :     2.805980
      px      :     0.944470
      py      :     0.904553
      dz2     :     0.003521  d :     0.055613
      dxz     :     0.003967
      dyz     :     0.011379
      dx2y2   :     0.019004
      dxy     :     0.017742

  9 C s       :     3.178696  s :     3.178696
      pz      :     0.977466  p :     2.820129
      px      :     0.923656
      py      :     0.919007
      dz2     :     0.003532  d :     0.054542
      dxz     :     0.006317
      dyz     :     0.007950
      dx2y2   :     0.015210
      dxy     :     0.021533

 10 H s       :     0.852223  s :     0.852223
      pz      :     0.005833  p :     0.026013
      px      :     0.014561
      py      :     0.005618

 11 H s       :     0.854366  s :     0.854366
      pz      :     0.006009  p :     0.026060
      px      :     0.010999
      py      :     0.009052

 12 C s       :     3.125608  s :     3.125608
      pz      :     0.980398  p :     2.979680
      px      :     0.988579
      py      :     1.010702
      dz2     :     0.012356  d :     0.068116
      dxz     :     0.010209
      dyz     :     0.013132
      dx2y2   :     0.013710
      dxy     :     0.018709

 13 C s       :     3.193286  s :     3.193286
      pz      :     0.947369  p :     2.791281
      px      :     0.942650
      py      :     0.901263
      dz2     :     0.006254  d :     0.054823
      dxz     :     0.009482
      dyz     :     0.010976
      dx2y2   :     0.015718
      dxy     :     0.012393

 14 C s       :     3.190486  s :     3.190486
      pz      :     0.928548  p :     2.790676
      px      :     0.917123
      py      :     0.945005
      dz2     :     0.007865  d :     0.055122
      dxz     :     0.009219
      dyz     :     0.011533
      dx2y2   :     0.015569
      dxy     :     0.010937

 15 C s       :     3.193137  s :     3.193137
      pz      :     0.964820  p :     2.869343
      px      :     0.944248
      py      :     0.960275
      dz2     :     0.007761  d :     0.055299
      dxz     :     0.009041
      dyz     :     0.011655
      dx2y2   :     0.015157
      dxy     :     0.011685

 16 H s       :     0.856162  s :     0.856162
      pz      :     0.009363  p :     0.025550
      px      :     0.011261
      py      :     0.004926

 17 C s       :     3.190998  s :     3.190998
      pz      :     0.977540  p :     2.867133
      px      :     0.959357
      py      :     0.930236
      dz2     :     0.006773  d :     0.055226
      dxz     :     0.009644
      dyz     :     0.011007
      dx2y2   :     0.014759
      dxy     :     0.013043

 18 H s       :     0.849921  s :     0.849921
      pz      :     0.007757  p :     0.025310
      px      :     0.005087
      py      :     0.012465

 19 C s       :     3.193219  s :     3.193219
      pz      :     0.944674  p :     2.851464
      px      :     0.956452
      py      :     0.950338
      dz2     :     0.010998  d :     0.055409
      dxz     :     0.007656
      dyz     :     0.010486
      dx2y2   :     0.010211
      dxy     :     0.016056

 20 H s       :     0.853585  s :     0.853585
      pz      :     0.007706  p :     0.024838
      px      :     0.005035
      py      :     0.012097

 21 H s       :     0.853536  s :     0.853536
      pz      :     0.009580  p :     0.024904
      px      :     0.010411
      py      :     0.004914

 22 H s       :     0.852797  s :     0.852797
      pz      :     0.005511  p :     0.024809
      px      :     0.009332
      py      :     0.009967

 23 C s       :     3.125630  s :     3.125630
      pz      :     0.979091  p :     2.979086
      px      :     0.980643
      py      :     1.019352
      dz2     :     0.011837  d :     0.068160
      dxz     :     0.012336
      dyz     :     0.010632
      dx2y2   :     0.016662
      dxy     :     0.016693

 24 C s       :     3.189892  s :     3.189892
      pz      :     0.931288  p :     2.792441
      px      :     0.904398
      py      :     0.956755
      dz2     :     0.007417  d :     0.055101
      dxz     :     0.012104
      dyz     :     0.008224
      dx2y2   :     0.014490
      dxy     :     0.012866

 25 C s       :     3.192198  s :     3.192198
      pz      :     0.946731  p :     2.790947
      px      :     0.924737
      py      :     0.919479
      dz2     :     0.005913  d :     0.054803
      dxz     :     0.011943
      dyz     :     0.008136
      dx2y2   :     0.013699
      dxy     :     0.015113

 26 C s       :     3.191497  s :     3.191497
      pz      :     0.978091  p :     2.868083
      px      :     0.944194
      py      :     0.945799
      dz2     :     0.006370  d :     0.055254
      dxz     :     0.011916
      dyz     :     0.008444
      dx2y2   :     0.013361
      dxy     :     0.015163

 27 H s       :     0.849798  s :     0.849798
      pz      :     0.007732  p :     0.025330
      px      :     0.005408
      py      :     0.012189

 28 C s       :     3.193556  s :     3.193556
      pz      :     0.967275  p :     2.870181
      px      :     0.935934
      py      :     0.966972
      dz2     :     0.007305  d :     0.055322
      dxz     :     0.011994
      dyz     :     0.008194
      dx2y2   :     0.015002
      dxy     :     0.012827

 29 H s       :     0.855163  s :     0.855163
      pz      :     0.008967  p :     0.025580
      px      :     0.009714
      py      :     0.006899

[...]
Convergence tolerance for the energies         ...    2.500e-07
Orthogonality tolerance                        ...    1.000e-14
Level Shift                                    ...    0.000e+00
Constructing the preconditioner                ... o.k.
Building the initial guess                     ... o.k.
Number of trial vectors determined             ...    100


                       ****Iteration    0****
   Time for iteration     :  TOTAL=142.8 TRAFO=0.4 RIJ=22.2 XC=20.2
   Size of expansion space: 30
   Lowest Energy          :     0.049250665609
   Maximum Energy change  :     0.106323181978 (vector 9)
   Maximum residual norm  :     0.004644484044

                       ****Iteration    1****
   Time for iteration     :  TOTAL=58.1 TRAFO=0.1 RIJ=10.4 XC=6.8
   Size of expansion space: 40
   Lowest Energy          :     0.046488426487
   Maximum Energy change  :     0.003937826164 (vector 3)
   Maximum residual norm  :     0.000382178352

                       ****Iteration    2****
   Time for iteration     :  TOTAL=57.9 TRAFO=0.1 RIJ=10.5 XC=6.9
   Size of expansion space: 50
   Lowest Energy          :     0.046355666083
   Maximum Energy change  :     0.000383907631 (vector 2)
   Maximum residual norm  :     0.000088121189

                       ****Iteration    3****
   Time for iteration     :  TOTAL=59.3 TRAFO=0.1 RIJ=10.6 XC=6.9
   Size of expansion space: 60
   Lowest Energy          :     0.046345550352
   Maximum Energy change  :     0.000391193411 (vector 9)
   Maximum residual norm  :     0.000042429196

                       ****Iteration    4****
   Time for iteration     :  TOTAL=59.3 TRAFO=0.1 RIJ=10.5 XC=6.9
   Size of expansion space: 70
   Lowest Energy          :     0.046344778064
   Maximum Energy change  :     0.000040891326 (vector 9)
   Maximum residual norm  :     0.000003191623

                       ****Iteration    5****
   Time for iteration     :  TOTAL=59.6 TRAFO=0.1 RIJ=10.5 XC=7.0
   Size of expansion space: 80
   Lowest Energy          :     0.046344744262
   Maximum Energy change  :     0.000002838480 (vector 9)
   Maximum residual norm  :     0.000000199930

      *** CONVERGENCE OF RESIDUAL NORM REACHED ***

Storing the converged CI vectors               ... QX-DMA.cis1

                 *** DAVIDSON DONE ***

Total time for solving the CIS problem:   438.943sec

------------------------------------
TD-DFT/TDA EXCITED STATES (SINGLETS)
------------------------------------

the weight of the individual excitations are printed if larger than 1.0e-02

STATE  1:  E=   0.046345 au      1.261 eV    10171.5 cm**-1 <S**2> =   0.000000 Mult 1
   170a -> 172a  :     0.035454 (c= -0.18829364)
   171a -> 172a  :     0.932587 (c= -0.96570564)
   171a -> 173a  :     0.011578 (c= -0.10760240)
   171a -> 175a  :     0.010219 (c= -0.10108957)

STATE  2:  E=   0.059634 au      1.623 eV    13088.2 cm**-1 <S**2> =   0.000000 Mult 1
   170a -> 172a  :     0.012004 (c=  0.10956463)
   171a -> 172a  :     0.013257 (c= -0.11513979)
   171a -> 173a  :     0.949479 (c=  0.97441218)

STATE  3:  E=   0.079769 au      2.171 eV    17507.3 cm**-1 <S**2> =   0.000000 Mult 1
   167a -> 172a  :     0.027486 (c= -0.16579016)
   169a -> 172a  :     0.011560 (c= -0.10751908)
   170a -> 172a  :     0.838939 (c=  0.91593609)
   170a -> 173a  :     0.012939 (c= -0.11375088)
   170a -> 175a  :     0.012891 (c=  0.11354042)
   171a -> 172a  :     0.030845 (c= -0.17562728)

STATE  4:  E=   0.082040 au      2.232 eV    18005.7 cm**-1 <S**2> =   0.000000 Mult 1
   171a -> 174a  :     0.967279 (c=  0.98350355)
   171a -> 175a  :     0.015542 (c=  0.12466648)

STATE  5:  E=   0.088144 au      2.399 eV    19345.4 cm**-1 <S**2> =   0.000000 Mult 1
   167a -> 172a  :     0.022580 (c=  0.15026805)
   169a -> 172a  :     0.379605 (c=  0.61612115)
   170a -> 173a  :     0.562682 (c= -0.75012152)

STATE  6:  E=   0.089694 au      2.441 eV    19685.6 cm**-1 <S**2> =   0.000000 Mult 1
   168a -> 172a  :     0.976282 (c=  0.98806989)
   168a -> 173a  :     0.010348 (c=  0.10172296)

STATE  7:  E=   0.092004 au      2.504 eV    20192.4 cm**-1 <S**2> =   0.000000 Mult 1
   167a -> 172a  :     0.289245 (c= -0.53781496)
   167a -> 173a  :     0.016377 (c= -0.12797229)
   169a -> 172a  :     0.448745 (c=  0.66988408)
   170a -> 173a  :     0.205708 (c=  0.45355070)

STATE  8:  E=   0.098660 au      2.685 eV    21653.4 cm**-1 <S**2> =   0.000000 Mult 1
   167a -> 172a  :     0.112280 (c=  0.33508160)
   167a -> 173a  :     0.010051 (c= -0.10025576)
   169a -> 172a  :     0.038518 (c=  0.19625908)
   170a -> 173a  :     0.021175 (c=  0.14551516)
   171a -> 175a  :     0.702964 (c=  0.83842952)
   171a -> 176a  :     0.035417 (c= -0.18819400)
   171a -> 177a  :     0.037276 (c=  0.19307019)

STATE  9:  E=   0.102182 au      2.781 eV    22426.4 cm**-1 <S**2> =   0.000000 Mult 1
   165a -> 172a  :     0.014003 (c= -0.11833621)
   166a -> 172a  :     0.960996 (c= -0.98030383)

STATE 10:  E=   0.105085 au      2.860 eV    23063.5 cm**-1 <S**2> =   0.000000 Mult 1
   163a -> 172a  :     0.011246 (c=  0.10604869)
   164a -> 172a  :     0.092967 (c=  0.30490505)
   165a -> 172a  :     0.039969 (c= -0.19992281)
   167a -> 172a  :     0.256674 (c=  0.50662972)
   167a -> 173a  :     0.042700 (c= -0.20663874)
   169a -> 172a  :     0.051854 (c=  0.22771484)
   169a -> 173a  :     0.250419 (c= -0.50041924)
   170a -> 172a  :     0.017127 (c=  0.13087143)
   170a -> 173a  :     0.058831 (c=  0.24255056)
   170a -> 175a  :     0.033052 (c= -0.18180141)
   171a -> 175a  :     0.093232 (c= -0.30533858)


-----------------------------
TD-DFT/TDA-EXCITATION SPECTRA
-----------------------------

Center of mass = ( -3.5402,  1.0752,  9.2283)
Generating CIS transition densities           ... done

----------------------------------------------------------------------------------------------------
                     ABSORPTION SPECTRUM VIA TRANSITION ELECTRIC DIPOLE MOMENTS    
----------------------------------------------------------------------------------------------------
     Transition      Energy     Energy  Wavelength fosc(D2)      D2        DX        DY        DZ   
                      (eV)      (cm-1)    (nm)                 (au**2)    (au)      (au)      (au)  
----------------------------------------------------------------------------------------------------
  0-1A  ->  1-1A    1.261105   10171.5   983.1   0.766923793  24.82235  -1.21275   4.81378  -0.42325
  0-1A  ->  2-1A    1.622728   13088.2   764.0   0.023291343   0.58586   0.10152   0.75590  -0.06455
  0-1A  ->  3-1A    2.170628   17507.3   571.2   0.816212346  15.34828  -1.00402   3.77990  -0.22928
  0-1A  ->  4-1A    2.232419   18005.7   555.4   0.042721878   0.78112  -0.06514  -0.87825   0.07446
  0-1A  ->  5-1A    2.398527   19345.4   516.9   0.029541499   0.50272  -0.31274  -0.62888   0.09708
  0-1A  ->  6-1A    2.440708   19685.6   508.0   0.013205719   0.22085   0.02075   0.46855   0.02966
  0-1A  ->  7-1A    2.503543   20192.4   495.2   0.082377463   1.34306  -1.10360   0.35358  -0.01019
  0-1A  ->  8-1A    2.684685   21653.4   461.8   0.694905665  10.56512  -1.24307   2.98622  -0.32000
  0-1A  ->  9-1A    2.780522   22426.4   445.9   0.003901085   0.05727   0.20542  -0.12064   0.02265
  0-1A  -> 10-1A    2.859503   23063.5   433.6   0.034346154   0.49026  -0.67765   0.17603   0.00796

----------------------------------------------------------------------------------------------------
                     ABSORPTION SPECTRUM VIA TRANSITION VELOCITY DIPOLE MOMENTS    
----------------------------------------------------------------------------------------------------
     Transition      Energy     Energy  Wavelength fosc(P2)      P2        PX        PY        PZ   
                      (eV)      (cm-1)    (nm)                 (au**2)    (au)      (au)      (au)  
----------------------------------------------------------------------------------------------------
  0-1A  ->  1-1A    1.261105   10171.5   983.1   0.037379224   0.00260   0.00617  -0.04895   0.01283
  0-1A  ->  2-1A    1.622728   13088.2   764.0   0.011338508   0.00101  -0.02388  -0.02001   0.00659
  0-1A  ->  3-1A    2.170628   17507.3   571.2   0.179620640   0.02149   0.08494  -0.11865   0.01417
  0-1A  ->  4-1A    2.232419   18005.7   555.4   0.015149619   0.00186  -0.00627   0.04255  -0.00384
  0-1A  ->  5-1A    2.398527   19345.4   516.9   0.008043804   0.00106  -0.01046   0.03088   0.00074
  0-1A  ->  6-1A    2.440708   19685.6   508.0   0.005790401   0.00078   0.00574  -0.02333   0.01421
  0-1A  ->  7-1A    2.503543   20192.4   495.2   0.020136672   0.00278   0.04779  -0.02224   0.00057
  0-1A  ->  8-1A    2.684685   21653.4   461.8   0.241768943   0.03578   0.05199  -0.18049   0.02238
  0-1A  ->  9-1A    2.780522   22426.4   445.9   0.003090757   0.00047   0.01517   0.01561  -0.00021
  0-1A  -> 10-1A    2.859503   23063.5   433.6   0.032495522   0.00512   0.07114   0.00621  -0.00476

------------------------------------------------------------------------------------------
                     CD SPECTRUM VIA TRANSITION ELECTRIC DIPOLE MOMENTS    
------------------------------------------------------------------------------------------
     Transition      Energy     Energy  Wavelength    R        MX        MY        MZ   
                      (eV)      (cm-1)    (nm)   (1e40*cgs)   (au)      (au)      (au)  
------------------------------------------------------------------------------------------
  0-1A  ->  1-1A    1.261105   10171.5   983.1   17.28057  -0.06979   0.00390   0.33098
  0-1A  ->  2-1A    1.622728   13088.2   764.0    3.36410  -0.03008   0.00419   0.11235
  0-1A  ->  3-1A    2.170628   17507.3   571.2    4.04879  -0.01884   0.02917   0.60092
  0-1A  ->  4-1A    2.232419   18005.7   555.4    9.82277   0.04053  -0.00615  -0.31694
  0-1A  ->  5-1A    2.398527   19345.4   516.9    9.35115   0.04011  -0.00214  -0.08897
  0-1A  ->  6-1A    2.440708   19685.6   508.0   -1.11853   0.00213  -0.00007   0.07963
  0-1A  ->  7-1A    2.503543   20192.4   495.2   13.92721   0.02869   0.00684   0.02930
  0-1A  ->  8-1A    2.684685   21653.4   461.8  -18.48242  -0.08825   0.04021   0.59559
  0-1A  ->  9-1A    2.780522   22426.4   445.9    0.85563  -0.00026  -0.00123  -0.08437
  0-1A  -> 10-1A    2.859503   23063.5   433.6   29.49768   0.09241   0.00498  -0.10350

------------------------------------------------------------------------------------------
                     CD SPECTRUM VIA TRANSITION VELOCITY DIPOLE MOMENTS    
------------------------------------------------------------------------------------------
     Transition      Energy     Energy  Wavelength    R        MX        MY        MZ   
                      (eV)      (cm-1)    (nm)   (1e40*cgs)   (au)      (au)      (au)  
------------------------------------------------------------------------------------------
  0-1A  ->  1-1A    1.261105   10171.5   983.1   36.85840  -0.06979   0.00390   0.33098
  0-1A  ->  2-1A    1.622728   13088.2   764.0   10.86688  -0.03008   0.00419   0.11235
  0-1A  ->  3-1A    2.170628   17507.3   571.2   20.41067  -0.01884   0.02917   0.60092
  0-1A  ->  4-1A    2.232419   18005.7   555.4    4.03346   0.04053  -0.00615  -0.31694
  0-1A  ->  5-1A    2.398527   19345.4   516.9   -2.95112   0.04011  -0.00214  -0.08897
  0-1A  ->  6-1A    2.440708   19685.6   508.0    6.01974   0.00213  -0.00007   0.07963
  0-1A  ->  7-1A    2.503543   20192.4   495.2    6.33141   0.02869   0.00684   0.02930
  0-1A  ->  8-1A    2.684685   21653.4   461.8    7.09129  -0.08825   0.04021   0.59559
  0-1A  ->  9-1A    2.780522   22426.4   445.9   -0.02441  -0.00026  -0.00123  -0.08437
  0-1A  -> 10-1A    2.859503   23063.5   433.6   31.84188   0.09241   0.00498  -0.10350

Total run time:      440.676 sec

           *** ORCA-CIS/TD-DFT FINISHED WITHOUT ERROR ***
-----------------------
CIS/TD-DFT TOTAL ENERGY
-----------------------

    E(SCF)  =  -2704.778950495 Eh
    DE(CIS) =      0.046344744 Eh (Root  1)
    ----------------------------- ---------
    E(tot)  =  -2704.732605750 Eh


Maximum memory used throughout the entire CIS-calculation: 764.8 MB
=> NOW LEAVING ORCA_CIS

-------------------------   --------------------
FINAL SINGLE POINT ENERGY     -2704.732605750313
-------------------------   --------------------


------------------------------------------------------------------------------
                              ORCA PROPERTY CALCULATIONS
------------------------------------------------------------------------------

GBWName                                 ... QX-DMA.gbw
Number of atoms                         ...     76
Number of basis functions               ...   1048
Max core memory                         ...   1024 MB

Electric properties:
Dipole moment                           ... YES
Quadrupole moment                       ...  NO
Static polarizability (Dipole/Dipole)   ...  NO
Static polarizability (Dipole/Quad.)    ...  NO
Static polarizability (Quad./Quad.)     ...  NO
Static polarizability (Velocity)        ...  NO

Atomic electric properties:
Dipole moment                           ...  NO
Quadrupole moment                       ...  NO
Static polarizability                   ...  NO

Choice of electric origin               ... Center of mass
Position of electric origin             ...    -3.540160     1.075238     9.228266

General magnetic properties:
Magnetizability                         ...  NO

EPR properties:
g-Tensor (aka g-matrix)                 ...  NO
Zero-Field splitting spin-orbit         ...  NO
Zero-field splitting spin-spin          ...  NO
Hyperfine couplings                     ...  NO (   0 nuclei)
Quadrupole couplings                    ...  NO (   0 nuclei)
Contact density                         ...  NO (   0 nuclei)

NMR properties:
Chemical shifts                         ...  NO (   0 nuclei)
Spin-rotation constants                 ...  NO (   0 nuclei)
Spin-spin couplings                     ...  NO (   0 nuclei,    0 pairs)

Choice of magnetic origin               ... GIAO
Position of magnetic origin             ...     0.000000     0.000000     0.000000

Properties with geometric perturbations:
SCF Hessian                             ...  NO
IR spectrum                             ...  NO
VCD spectrum                            ...  NO
X-ray spectroscopy properties:
SCF XES/XAS/RIXS spectra                ...  NO


-------------
DIPOLE MOMENT
-------------

Method             : SCF
Type of density    : Electron Density
Multiplicity       :   1
Irrep              :   0
Energy             : -2704.7789504945749286 Eh
Relativity type    : 
Basis              : AO
                                X                 Y                 Z
Electronic contribution:    -27.919331206      56.586745334      -6.162787449
Nuclear contribution   :     32.181628433     -62.920602157       6.461004390
                        -----------------------------------------
Total Dipole Moment    :      4.262297226      -6.333856823       0.298216940
                        -----------------------------------------
Magnitude (a.u.)       :      7.640278349
Magnitude (Debye)      :     19.420044226



--------------------
Rotational spectrum 
--------------------
 
Rotational constants in cm-1:             0.003884             0.000768             0.000650 
Rotational constants in MHz :           116.443637            23.020072            19.492747 

Dipole components along the rotational axes: 
x,y,z [a.u.] :    -7.236226     2.436066    -0.276529 
x,y,z [Debye]:   -18.393024     6.191989    -0.702881 

 

Dipole moment calculation done in   0.0 sec 

Maximum memory used throughout the entire PROP-calculation: 120.4 MB

--------------------------------
SUGGESTED CITATIONS FOR THIS RUN
--------------------------------

Below you find a list of papers that are relevant to this ORCA run
We neither can nor want to force you to cite these papers, but we appreciate if you do
You receive ORCA, which is the product of decades of hard work by many enthusiastic individuals, for free
The only thing we kindly ask in return is that you cite our papers,
We deeply appreciate it, if you show your appreciation for ORCA by not just citing the generic ORCA reference.

Please note that relegating all ORCA citations to the supporting information does *not* help us.
SI sections are not indexed - citations you put there will not count into any citation statistics
But we need these citations in order to attract the funding resources that allow us to do what we are doing

Therefore, if you are a happy ORCA user, please consider citing a few of the papers listed below in the main body of your paper

In addition to the list printed below, the program has created the file QX-DMA.bibtex that contains the list in bibtex format
You can import this file easily into all common literature databanks and citation aid programs


List of essential papers. We consider these as the minimum necessary citations

  1. Neese,F.
     Software update: the ORCA program system, version 5.0
     WIRES Comput. Molec. Sci., 2022 12(1)e1606
     doi.org/10.1002/wcms.1606

List of papers to cite with high priority. The work reported in these papers was absolutely
necessary for this run to complete.
Our perspective: the developers of density functionals and basis sets usually get cited in chemistry papers
Good! But without the algorithms to do something with them, the functionals or basis sets would not do anything.
Hence, in our opinion, the algorithm design and method developments papers are equally worthy of getting cited

  1. Neese,F.; Olbrich,G.
     Efficient use of the resolution of the identity approximation in time-dependent density functional calculations with hybrid density functionals
     Chem. Phys. Lett., 2002 362 170-178
     doi.org/10.1016/s0009-2614(02)01053-9
  2. Neese,F.
     An improvement of the resolution of the identity approximation for the formation of the Coulomb matrix
     J. Comp. Chem., 2003 24(14)1740-1747
     doi.org/10.1002/jcc.10318
  3. Garcia-Rates,M.; Neese,F.
     Effect of the Solute Cavity on the Solvation Energy and its Derivatives within the Framework of the Gaussian Charge Scheme
     J. Comput. Chem., 2020 41 922-939
     doi.org/10.1002/jcc.26139
  4. Neese,F.
     The SHARK Integral Generation and Digestion System
     J. Comp. Chem., 2022  1-16
     doi.org/10.1002/jcc.26942

List of suggested additional citations. These are papers that are important in the 'surrounding' of 
of this run, or papers that preceded the highly important papers. If you like your results we are grateful for a citation.

  1. Neese,F.
     The ORCA program system
     WIRES Comput. Molec. Sci., 2012 2(1)73-78
     doi.org/10.1002/wcms.81
  2. Neese,F.
     Software update: the ORCA program system, version 4.0
     WIRES Comput. Molec. Sci., 2018 8(1)1-6
     doi.org/10.1002/wcms.1327
  3. Neese,F.; Wennmohs,F.; Becker,U.; Riplinger,C.
     The ORCA quantum chemistry program package
     J. Chem. Phys., 2020 152 Art. No. L224108
     doi.org/10.1063/5.0004608

List of optional additional citations

  1. Neese,F.
     Approximate second-order SCF convergence for spin unrestricted wavefunctions
     Chem. Phys. Lett., 2000 325(1-3)93-98
     doi.org/10.1016/s0009-2614(00)00662-x

Timings for individual modules:

Sum of individual times          ...      703.532 sec (=  11.726 min)
Startup calculation              ...        4.567 sec (=   0.076 min)   0.6 %
SCF iterations                   ...      257.842 sec (=   4.297 min)  36.6 %
Property integrals               ...        0.268 sec (=   0.004 min)   0.0 %
Property calculations            ...        0.128 sec (=   0.002 min)   0.0 %
CIS module                       ...      440.727 sec (=   7.345 min)  62.6 %
                             ****ORCA TERMINATED NORMALLY****
TOTAL RUN TIME: 0 days 0 hours 11 minutes 43 seconds 642 msec
