
                                 *****************
                                 * O   R   C   A *
                                 *****************

                                            #,                                       
                                            ###                                      
                                            ####                                     
                                            #####                                    
                                            ######                                   
                                           ########,                                 
                                     ,,################,,,,,                         
                               ,,#################################,,                 
                          ,,##########################################,,             
                       ,#########################################, ''#####,          
                    ,#############################################,,   '####,        
                  ,##################################################,,,,####,       
                ,###########''''           ''''###############################       
              ,#####''   ,,,,##########,,,,          '''####'''          '####       
            ,##' ,,,,###########################,,,                        '##       
           ' ,,###''''                  '''############,,,                           
         ,,##''                                '''############,,,,        ,,,,,,###''
      ,#''                                            '''#######################'''  
     '                                                          ''''####''''         
             ,#######,   #######,   ,#######,      ##                                
            ,#'     '#,  ##    ##  ,#'     '#,    #''#        ,####,   ,####,        
            ##       ##  ##   ,#'  ##            #'  '#       #'       #'  '#        
            ##       ##  #######   ##           ,######,      #####,   #    #        
            '#,     ,#'  ##    ##  '#,     ,#' ,#      #,     #,   #   #,  ,#        
             '#######'   ##     ##  '#######'  #'      '#     '####' # '####'        



                #########################################################
                #                        -***-                          #
                #          Department of theory and spectroscopy        #
                #                                                       #
                #                      Frank Neese                      #
                #                                                       #
                #     Directorship, Architecture, Infrastructure        #
                #                    SHARK, DRIVERS                     #
                #        Core code/Algorithms in most modules           #
                #                                                       #
                #        Max Planck Institute fuer Kohlenforschung      #
                #                Kaiser Wilhelm Platz 1                 #
                #                 D-45470 Muelheim/Ruhr                 #
                #                      Germany                          #
                #                                                       #
                #                  All rights reserved                  #
                #                        -***-                          #
                #########################################################


                         Program Version 6.0.1  -  RELEASE   -


 With contributions from (in alphabetic order):
[Max-Planck-Institut fuer Kohlenforschung]                               
  Daniel Aravena         : Magnetic Suceptibility                        
  Michael Atanasov       : Ab Initio Ligand Field Theory (pilot matlab implementation)
  Alexander A. Auer      : GIAO ZORA, VPT2 properties, NMR spectrum      
  Ute Becker             : All parallelization in ORCA, NUMFREQ, NUMCALC 
  Giovanni Bistoni       : ED, misc. LED, open-shell LED, HFLD           
  Martin Brehm           : Molecular dynamics                            
  Dmytro Bykov           : pre 5.0 version of the SCF Hessian            
  Marcos Casanova-Páez   : Triplet and SCS-CIS(D). UHF-(DLPNO)-IP/EA/STEOM-CCSD. UHF-CVS-IP/STEOM-CCSD   
  Vijay G. Chilkuri      : MRCI spin determinant printing, contributions to CSF-ICE 
  Pauline Colinet        : FMM embedding                                 
  Dipayan Datta          : RHF DLPNO-CCSD density                        
  Achintya Kumar Dutta   : EOM-CC, STEOM-CC                              
  Nicolas Foglia         : Exact transition moments, OPA infrastructure, MCD improvements    
  Dmitry Ganyushin       : Spin-Orbit,Spin-Spin,Magnetic field MRCI      
  Miquel Garcia-Rates    : C-PCM and meta-GGA Hessian, CCSD/C-PCM, Gaussian charge scheme 
  Tiago L. C. Gouveia    : GS-ROHF, GS-ROCIS                             
  Yang Guo               : DLPNO-NEVPT2, F12-NEVPT2, CIM, IAO-localization        
  Andreas Hansen         : Spin unrestricted coupled pair/coupled cluster methods 
  Ingolf Harden          : AUTO-CI MPn and infrastructure                
  Benjamin Helmich-Paris : MC-RPA, TRAH-(SCF,CASSCF), AVAS, COSX integrals, SCF dyn. polar. 
  Lee Huntington         : MR-EOM, pCC                                   
  Robert Izsak           : Overlap fitted RIJCOSX, COSX-SCS-MP3, EOM     
  Riya Kayal             : Wick's Theorem for AUTO-CI, AUTO-CI UHF-CCSDT 
  Emily Kempfer          : AUTO-CI, RHF CISDT and CCSDT                  
  Christian Kollmar      : KDIIS, OOCD, Brueckner-CCSD(T), CCSD density, CASPT2, CASPT2-K, improved NEVPT2 
  Axel Koslowski         : Symmetry handling                             
  Simone Kossmann        : meta-GGA functionals, TD-DFT gradient, OOMP2, (MP2 Hessian; deprecated post 5.0) 
  Lucas Lang             : DCDCAS                                        
  Marvin Lechner         : AUTO-CI (C++ implementation), FIC-MRCC        
  Spencer Leger          : CASSCF response                               
  Dagmar Lenk            : GEPOL surface, SMD, ORCA-2-JSON               
  Dimitrios Liakos       : Extrapolation schemes; Compound Job, initial MDCI parallelization 
  Dimitrios Manganas     : Further ROCIS development; embedding schemes. LFT, Crystal Embedding 
  Dimitrios Pantazis     : SARC Basis sets                               
  Anastasios Papadopoulos: AUTO-CI, single reference methods and gradients 
  Taras Petrenko         : pre 6.0 DFT Hessian and TD-DFT gradient, (ASA, deprecated), ECA, 1-Electron XAS/XES, NRVS 
  Peter Pinski           : DLPNO-MP2, DLPNO-MP2 Gradient                 
  Christoph Reimann      : Effective Core Potentials                     
  Marius Retegan         : Local ZFS, SOC                                
  Christoph Riplinger    : Optimizer, TS searches, QM/MM, DLPNO-CCSD(T), (RO)-DLPNO pert. Triples 
  Michael Roemelt        : Original ROCIS implementation                 
  Masaaki Saitow         : Open-shell DLPNO-CCSD energy and density      
  Barbara Sandhoefer     : DKH picture change effects                    
  Kantharuban Sivalingam : CASSCF convergence/infrastructure, NEVPT2 and variants, FIC-MRCI 
  Bernardo de Souza      : ESD, SOC TD-DFT                               
  Georgi L. Stoychev     : AutoAux, RI-MP2 NMR, DLPNO-MP2 response, X2C  
  Van Anh Tran           : RI-MP2 g-tensors                              
  Willem Van den Heuvel  : Paramagnetic NMR                              
  Zikuan Wang            : NOTCH, Electric field optimization            
  Frank Wennmohs         : Technical directorship and infrastructure     
  Hang Xu                : AUTO-CI-Response properties                   
                                                                         
[FACCTs GmbH]                                                            
  Markus Bursch, Miquel Garcia-Rates, Christoph Riplinger, Bernardo de Souza, Georgi L. Stoychev 
                                                                 
  APM, Basis sets (HGBS, AHGBS, def-TZVP (Ac-Lr), def2-XVPD (La-Lu)), CI-OPT, improved COSX, DLPNO-Multilevel,           
  DOCKER, DRACO, updates on ESD, GOAT, IRC, LR-CPCM, MBIS, meta-GGA TD-DFT gradient, ML-optimized integration grids, 
  MM, NACMEs, nearIR, NEB, NEB-TS, NL-DFT gradient (VV10), 2- and 3-layer-ONIOM, interface openCOSMO-RS, QMMM,   
  Crystal-QMMM, SF, symmetry and pop. for TD-DFT, r2SCAN hybrids, SOLVATOR                                   
                                                                         
[Other institutions]                                                     
  V. Asgeirsson          : NEB                                           
  Christoph Bannwarth    : sTDA-DFT, sTD-DFT, PBEh-3c, B97-3c, D3        
  Sebastian Ehlert       : rSCAN, r2SCAN, r2SCAN-3c, D4, dhf basis sets  
  Marvin Friede          : D4 for Fr, Ra, Ac-Lr                          
  Lars Goerigk           : TD-DFT with DH, B97 family of functionals     
  Stefan Grimme          : VdW corrections, initial TS optimization, DFT functionals, gCP, sTDA/sTD-DF 
  Waldemar Hujo          : DFT-NL                                        
  H. Jonsson             : NEB                                           
  Holger Kruse           : gCP                                           
  Marcel Mueller         : wB97X-3c, vDZP basis set                      
  Hagen Neugebauer       : wr2SCAN                                       
  Tobias Risthaus        : range-separated hybrid DFT                    
  Lukas Wittmann         : regularized MP2, r2SCAN double-hybrids, wr2SCAN        
                                                                         
We gratefully acknowledge several colleagues who have allowed us to      
interface, adapt or use parts of their codes:                            
  Ed Valeev, F. Pavosevic, A. Kumar             : LibInt (2-el integral package), F12 methods 
  Garnet Chan, S. Sharma, J. Yang, R. Olivares  : DMRG                   
  Ulf Ekstrom                                   : XCFun DFT Library      
  Mihaly Kallay                                 : mrcc  (arbitrary order and MRCC methods)
  Frank Weinhold                                : gennbo (NPA and NBO analysis)           
  Simon Mueller                                 : openCOSMO-RS                            
  Christopher J. Cramer and Donald G. Truhlar   : smd solvation model                     
  S Lehtola, MJT Oliveira, MAL Marques          : LibXC Library                           
  Liviu Ungur et al                             : ANISO software                          


 Your calculation uses the libint2 library for the computation of 2-el integrals
 For citations please refer to: http://libint.valeyev.net

 Your ORCA version has been built with support for libXC version: 6.2.2
 For citations please refer to: https://libxc.gitlab.io

 This ORCA versions uses:
   CBLAS   interface :  Fast vector & matrix operations
   LAPACKE interface :  Fast linear algebra routines
   SCALAPACK package :  Parallel linear algebra routines
   Shared memory     :  Shared parallel matrices
   BLAS/LAPACK       :  OpenBLAS 0.3.27  USE64BITINT DYNAMIC_ARCH NO_AFFINITY Cooperlake SINGLE_THREADED
        Core in use  :  Cooperlake
   Copyright (c) 2011-2014, The OpenBLAS Project


XCFun DFT library Copyright 2009-2010 Ulf Ekstrom and contributors.
See http://admol.org/xcfun for more information.
This is free software; see the source code for copying conditions.
There is ABSOLUTELY NO WARRANTY; not even for MERCHANTABILITY or FITNESS FOR A PARTICULAR PURPOSE.
For details see the documentation.
Scientific users of this library should cite U. Ekstrom, L. Visscher, R. Bast, A. J. Thorvaldsen and K. Ruud;
J.Chem.Theor.Comp. 2010, DOI: 10.1021/ct100117s
XCFun Version 0.99 

Warning: RI is on but no J-basis has been assigned. Assigning Def2/J (nothing to worry about!)
================================================================================

----- Orbital basis set information -----
Your calculation utilizes the basis: 6-311G(d,p)
   H, Li - Ne  : R. Krishnan, J. S. Binkley, R. Seeger and J. A. Pople, J. Chem. Phys. 72, 650 (1980).
   Na - Ar     : A. D. McLean and G. S. Chandler J. Chem. Phys. 72, 5639, (1980).
   K  - Ca     : J.-P. Blaudeau, M. P. McGrath, L. A. Curtiss and L. Radom, J. Chem. Phys. 107, 5016 (1997).
   Ga - Kr     : L. A. Curtiss, M. P. McGrath, J.-P. Blandeau, N. E. Davis, R. C. Binning and L. Radom, J. Chem. Phys. 103, 6104 (1995).
   Pol./Diff.
   H, Li - Cl  : T. Clark, J. Chandrasekhar and P. v. R. Schleyer, J. Comp. Chem. 4, 294 (1983).
   H - Ne      : M. J. Frisch, J. A. Pople and J. S. Binkley, J. Chem. Phys. 80, 3265 (1984).

----- AuxJ basis set information -----
Your calculation utilizes the auxiliary basis: def2/J
   F. Weigend, Phys. Chem. Chem. Phys. 8, 1057 (2006).

================================================================================
                                        WARNINGS
                       Please study these warnings very carefully!
================================================================================

INFO   : Checking CIS options ...

WARNING: CIS/ROCIS methods need fully converged wavefunctions
  ===> : Setting SCFConvForced true
         You can overwrite this default with %scf ConvForced false 


================================================================================
                                       INPUT FILE
================================================================================
NAME = QX-DMA.inp
|  1> ! CAM-B3LYP 6-311G(d,p) TightSCF CPCM(THF)
|  2> 
|  3> %tddft
|  4>   nroots 10     
|  5> end
|  6> 
|  7> * xyz 0 1
|  8>    N       -1.90799        2.40480        4.72204
|  9>    N       -1.34517       -0.28641        4.90561
| 10>    C       -2.92291        1.51690        4.80893
| 11>    C       -2.63140        0.11985        4.85341
| 12>    C       -0.65455        1.99376        4.71807
| 13>    C       -0.35979        0.59043        4.88065
| 14>    C       -4.27237        1.99242        4.81461
| 15>    C       -3.68201       -0.85869        4.87842
| 16>    C       -5.26518        1.01407        4.84736
| 17>    C       -4.98268       -0.35188        4.88459
| 18>    H       -6.30629        1.31013        4.83224
| 19>    H       -5.81976       -1.03622        4.93053
| 20>    C        0.37801        3.04531        4.50781
| 21>    C        0.26327        4.26956        5.18024
| 22>    C        1.42994        2.86651        3.59979
| 23>    C        1.19229        5.28312        4.96611
| 24>    H       -0.55822        4.41590        5.87076
| 25>    C        2.34700        3.88844        3.37402
| 26>    H        1.52484        1.93263        3.05904
| 27>    C        2.23618        5.09602        4.06129
| 28>    H        1.09835        6.22079        5.50265
| 29>    H        3.14887        3.74087        2.65925
| 30>    H        2.95693        5.88788        3.88983
| 31>    C        1.01212        0.04003        5.05708
| 32>    C        1.93655        0.63967        5.92282
| 33>    C        1.37075       -1.14336        4.39730
| 34>    C        3.19189        0.07168        6.11761
| 35>    H        1.67069        1.54455        6.45570
| 36>    C        2.63277       -1.69989        4.58099
| 37>    H        0.65167       -1.62080        3.74331
| 38>    C        3.54714       -1.09442        5.44178
| 39>    H        3.89245        0.54106        6.79922
| 40>    H        2.89984       -2.60998        4.05532
| 41>    H        4.52911       -1.53066        5.58841
| 42>    C       -4.62761        3.40731        4.78084
| 43>    C       -5.89716        3.93400        5.01180
| 44>    S       -3.51851        4.69046        4.38106
| 45>    C       -5.99079        5.32032        4.85630
| 46>    H       -6.74095        3.32449        5.30380
| 47>    C       -4.78312        5.90915        4.49935
| 48>    H       -6.90480        5.87616        5.00659
| 49>    C       -3.44843       -2.29581        4.89383
| 50>    C       -4.40160       -3.27814        4.68503
| 51>    S       -1.89683       -3.05407        5.23279
| 52>    C       -3.92161       -4.59481        4.81639
| 53>    H       -5.43111       -3.05681        4.43725
| 54>    C       -2.57940       -4.66217        5.13162
| 55>    H       -4.55010       -5.46892        4.70717
| 56>    C       -1.75539       -5.85180        5.33515
| 57>    C       -2.10754       -7.08459        4.75972
| 58>    C       -1.34864       -8.22707        4.95006
| 59>    H       -2.98801       -7.14783        4.13013
| 60>    C       -0.16706       -8.20114        5.72677
| 61>    H       -1.67285       -9.14495        4.47940
| 62>    N        0.61190       -9.33077        5.89629
| 63>    C       -0.58828       -5.83092        6.11661
| 64>    H       -0.28796       -4.91004        6.60473
| 65>    C        0.18482       -6.96376        6.31263
| 66>    H        1.06332       -6.88506        6.93801
| 67>    C       -5.19286        8.39622        4.26125
| 68>    C       -6.58540        8.38303        4.55703
| 69>    N       -7.71395        8.33049        4.80359
| 70>    C       -4.62373        9.73037        3.96292
| 71>    O       -5.25238       10.76035        3.95560
| 72>    O       -3.29151        9.68913        3.69029
| 73>    H       -3.03267       10.60359        3.50833
| 74>    C       -4.42138        7.26531        4.24819
| 75>    H       -3.37801        7.43528        4.00290
| 76>    C        0.12351      -10.62122        5.43768
| 77>    H       -0.80235      -10.92860        5.94504
| 78>    H       -0.06728      -10.61196        4.35986
| 79>    H        0.88379      -11.37747        5.62897
| 80>    C        1.72866       -9.30557        6.82685
| 81>    H        2.45257       -8.53144        6.55340
| 82>    H        1.41274       -9.12553        7.86469
| 83>    H        2.24403      -10.26447        6.78916
| 84> *
| 85> 
| 86> 
| 87>                          ****END OF INPUT****
================================================================================

                       ****************************
                       * Single Point Calculation *
                       ****************************

---------------------------------
CARTESIAN COORDINATES (ANGSTROEM)
---------------------------------
  N     -1.907990    2.404800    4.722040
  N     -1.345170   -0.286410    4.905610
  C     -2.922910    1.516900    4.808930
  C     -2.631400    0.119850    4.853410
  C     -0.654550    1.993760    4.718070
  C     -0.359790    0.590430    4.880650
  C     -4.272370    1.992420    4.814610
  C     -3.682010   -0.858690    4.878420
  C     -5.265180    1.014070    4.847360
  C     -4.982680   -0.351880    4.884590
  H     -6.306290    1.310130    4.832240
  H     -5.819760   -1.036220    4.930530
  C      0.378010    3.045310    4.507810
  C      0.263270    4.269560    5.180240
  C      1.429940    2.866510    3.599790
  C      1.192290    5.283120    4.966110
  H     -0.558220    4.415900    5.870760
  C      2.347000    3.888440    3.374020
  H      1.524840    1.932630    3.059040
  C      2.236180    5.096020    4.061290
  H      1.098350    6.220790    5.502650
  H      3.148870    3.740870    2.659250
  H      2.956930    5.887880    3.889830
  C      1.012120    0.040030    5.057080
  C      1.936550    0.639670    5.922820
  C      1.370750   -1.143360    4.397300
  C      3.191890    0.071680    6.117610
  H      1.670690    1.544550    6.455700
  C      2.632770   -1.699890    4.580990
  H      0.651670   -1.620800    3.743310
  C      3.547140   -1.094420    5.441780
  H      3.892450    0.541060    6.799220
  H      2.899840   -2.609980    4.055320
  H      4.529110   -1.530660    5.588410
  C     -4.627610    3.407310    4.780840
  C     -5.897160    3.934000    5.011800
  S     -3.518510    4.690460    4.381060
  C     -5.990790    5.320320    4.856300
  H     -6.740950    3.324490    5.303800
  C     -4.783120    5.909150    4.499350
  H     -6.904800    5.876160    5.006590
  C     -3.448430   -2.295810    4.893830
  C     -4.401600   -3.278140    4.685030
  S     -1.896830   -3.054070    5.232790
  C     -3.921610   -4.594810    4.816390
  H     -5.431110   -3.056810    4.437250
  C     -2.579400   -4.662170    5.131620
  H     -4.550100   -5.468920    4.707170
  C     -1.755390   -5.851800    5.335150
  C     -2.107540   -7.084590    4.759720
  C     -1.348640   -8.227070    4.950060
  H     -2.988010   -7.147830    4.130130
  C     -0.167060   -8.201140    5.726770
  H     -1.672850   -9.144950    4.479400
  N      0.611900   -9.330770    5.896290
  C     -0.588280   -5.830920    6.116610
  H     -0.287960   -4.910040    6.604730
  C      0.184820   -6.963760    6.312630
  H      1.063320   -6.885060    6.938010
  C     -5.192860    8.396220    4.261250
  C     -6.585400    8.383030    4.557030
  N     -7.713950    8.330490    4.803590
  C     -4.623730    9.730370    3.962920
  O     -5.252380   10.760350    3.955600
  O     -3.291510    9.689130    3.690290
  H     -3.032670   10.603590    3.508330
  C     -4.421380    7.265310    4.248190
  H     -3.378010    7.435280    4.002900
  C      0.123510  -10.621220    5.437680
  H     -0.802350  -10.928600    5.945040
  H     -0.067280  -10.611960    4.359860
  H      0.883790  -11.377470    5.628970
  C      1.728660   -9.305570    6.826850
  H      2.452570   -8.531440    6.553400
  H      1.412740   -9.125530    7.864690
  H      2.244030  -10.264470    6.789160

----------------------------
CARTESIAN COORDINATES (A.U.)
----------------------------
  NO LB      ZA    FRAG     MASS         X           Y           Z
   0 N     7.0000    0    14.007   -3.605579    4.544413    8.923362
   1 N     7.0000    0    14.007   -2.542003   -0.541236    9.270259
   2 C     6.0000    0    12.011   -5.523499    2.866526    9.087561
   3 C     6.0000    0    12.011   -4.972625    0.226484    9.171616
   4 C     6.0000    0    12.011   -1.236920    3.767660    8.915860
   5 C     6.0000    0    12.011   -0.679905    1.115751    9.223092
   6 C     6.0000    0    12.011   -8.073609    3.765128    9.098294
   7 C     6.0000    0    12.011   -6.957991   -1.622689    9.218878
   8 C     6.0000    0    12.011   -9.949748    1.916315    9.160183
   9 C     6.0000    0    12.011   -9.415901   -0.664957    9.230537
  10 H     1.0000    0     1.008  -11.917161    2.475787    9.131610
  11 H     1.0000    0     1.008  -10.997753   -1.958172    9.317351
  12 C     6.0000    0    12.011    0.714335    5.754802    8.518526
  13 C     6.0000    0    12.011    0.497508    8.068299    9.789235
  14 C     6.0000    0    12.011    2.702195    5.416919    6.802617
  15 C     6.0000    0    12.011    2.253102    9.983650    9.384588
  16 H     1.0000    0     1.008   -1.054883    8.344842   11.094129
  17 C     6.0000    0    12.011    4.435187    7.348087    6.375974
  18 H     1.0000    0     1.008    2.881530    3.652141    5.780748
  19 C     6.0000    0    12.011    4.225768    9.630082    7.674726
  20 H     1.0000    0     1.008    2.075581   11.755589   10.398502
  21 H     1.0000    0     1.008    5.950502    7.069220    5.025254
  22 H     1.0000    0     1.008    5.587788   11.126481    7.350713
  23 C     6.0000    0    12.011    1.912630    0.075646    9.556496
  24 C     6.0000    0    12.011    3.659549    1.208801   11.192508
  25 C     6.0000    0    12.011    2.590342   -2.160637    8.309693
  26 C     6.0000    0    12.011    6.031798    0.135456   11.560607
  27 H     1.0000    0     1.008    3.157147    2.918777   12.199505
  28 C     6.0000    0    12.011    4.975214   -3.212327    8.656817
  29 H     1.0000    0     1.008    1.231478   -3.062868    7.073831
  30 C     6.0000    0    12.011    6.703123   -2.068154   10.283474
  31 H     1.0000    0     1.008    7.355664    1.022455   12.848664
  32 H     1.0000    0     1.008    5.479903   -4.932147    7.663444
  33 H     1.0000    0     1.008    8.558778   -2.892528   10.560564
  34 C     6.0000    0    12.011   -8.744916    6.438883    9.034478
  35 C     6.0000    0    12.011  -11.144017    7.434183    9.470929
  36 S    16.0000    0    32.060   -6.649020    8.863685    8.279004
  37 C     6.0000    0    12.011  -11.320952   10.053948    9.177077
  38 H     1.0000    0     1.008  -12.738549    6.282376   10.022729
  39 C     6.0000    0    12.011   -9.038787   11.166675    8.502539
  40 H     1.0000    0     1.008  -13.048181   11.104333    9.461084
  41 C     6.0000    0    12.011   -6.516588   -4.338452    9.247998
  42 C     6.0000    0    12.011   -8.317819   -6.194787    8.853424
  43 S    16.0000    0    32.060   -3.584489   -5.771356    9.888540
  44 C     6.0000    0    12.011   -7.410769   -8.682933    9.101658
  45 H     1.0000    0     1.008  -10.263311   -5.776534    8.385187
  46 C     6.0000    0    12.011   -4.874360   -8.810224    9.697356
  47 H     1.0000    0     1.008   -8.598443  -10.334761    8.895262
  48 C     6.0000    0    12.011   -3.317206  -11.058299   10.081972
  49 C     6.0000    0    12.011   -3.982673  -13.387935    8.994567
  50 C     6.0000    0    12.011   -2.548560  -15.546909    9.354258
  51 H     1.0000    0     1.008   -5.646521  -13.507441    7.804815
  52 C     6.0000    0    12.011   -0.315698  -15.497909   10.822027
  53 H     1.0000    0     1.008   -3.161228  -17.281451    8.464839
  54 N     7.0000    0    14.007    1.156323  -17.632600   11.142373
  55 C     6.0000    0    12.011   -1.111688  -11.018842   11.558718
  56 H     1.0000    0     1.008   -0.544166   -9.278631   12.481131
  57 C     6.0000    0    12.011    0.349259  -13.159599   11.929142
  58 H     1.0000    0     1.008    2.009384  -13.010878   13.110939
  59 C     6.0000    0    12.011   -9.813083   15.866556    8.052595
  60 C     6.0000    0    12.011  -12.444602   15.841631    8.611539
  61 N     7.0000    0    14.007  -14.577253   15.742345    9.077470
  62 C     6.0000    0    12.011   -8.737583   18.387734    7.488833
  63 O     8.0000    0    15.999   -9.925560   20.334115    7.475001
  64 O     8.0000    0    15.999   -6.220052   18.309802    6.973637
  65 H     1.0000    0     1.008   -5.730916   20.037881    6.629783
  66 C     6.0000    0    12.011   -8.355197   13.729446    8.027916
  67 H     1.0000    0     1.008   -6.383514   14.050643    7.564385
  68 C     6.0000    0    12.011    0.233400  -20.071197   10.275726
  69 H     1.0000    0     1.008   -1.516222  -20.652061   11.234497
  70 H     1.0000    0     1.008   -0.127141  -20.053698    8.238941
  71 H     1.0000    0     1.008    1.670121  -21.500302   10.637212
  72 C     6.0000    0    12.011    3.266694  -17.584979   12.900877
  73 H     1.0000    0     1.008    4.634686  -16.122085   12.384131
  74 H     1.0000    0     1.008    2.669692  -17.244753   14.862110
  75 H     1.0000    0     1.008    4.240602  -19.397037   12.829653

--------------------------------
INTERNAL COORDINATES (ANGSTROEM)
--------------------------------
 N      0   0   0     0.000000000000     0.00000000     0.00000000
 N      1   0   0     2.755553585289     0.00000000     0.00000000
 C      1   2   0     1.351287862929    60.48768290     0.00000000
 C      2   1   3     1.349873935040    60.58516195     2.47035232
 C      1   2   3     1.319121478902    60.11874009   180.32010199
 C      2   1   3     1.319259311735    60.14356013   183.02117915
 C      3   1   2     1.430801811713   119.35740922   179.50948284
 C      4   2   1     1.435948259444   119.43176401   179.26184299
 C      7   3   1     1.394242798475   116.00697710   177.28400284
 C      9   7   3     1.395353620198   122.91412055     0.54655031
 H      9   7   3     1.082492572769   119.51243179   181.27849835
 H     10   9   7     1.082189745655   117.61777582   178.66760215
 C      5   1   2     1.488672839713   116.06528449   175.54504218
 C     13   5   1     1.401469027485   119.50446576    43.42144329
 C     13   5   1     1.401080470673   121.47688257   226.67057724
 C     14  13   5     1.391486144703   120.51720522   182.10009269
 H     14  13   5     1.083087755494   119.07950896     2.19408460
 C     15  13   5     1.391514305137   120.41329571   176.95417106
 H     15  13   5     1.083304401773   119.95290853   357.76098347
 C     18  15  13     1.393868925581   120.25528196     0.71977002
 H     16  14  13     1.084400721182   119.72673942   180.76985323
 H     18  15  13     1.084282506868   119.62941822   180.76982390
 H     20  18  15     1.084399074926   120.12115985   179.48421402
 C      6   2   1     1.488692296279   116.12626470   175.65887396
 C     24   6   2     1.401301074752   121.53054096   225.62655109
 C     24   6   2     1.401548078876   119.48460692    42.31731052
 C     25  24   6     1.391558227240   120.45997889   177.03437027
 H     25  24   6     1.083259178775   119.96438461   357.84180865
 C     26  24   6     1.391460433286   120.50663653   182.08292262
 H     26  24   6     1.082925629995   119.11975435     1.96889880
 C     27  25  24     1.393821352039   120.23413472     0.63505860
 H     27  25  24     1.084294282056   119.61398524   180.68918385
 H     29  26  24     1.084398055098   119.67306026   180.67046437
 H     31  27  25     1.084467968822   120.11693473   179.46627584
 C      7   3   1     1.459194840520   123.48863157   357.63803661
 C     35   7   3     1.393736732744   125.75679546   191.61316838
 S     35   7   3     1.742527124868   124.35866249    14.04814030
 C     36  35   7     1.398152341235   114.66231074   182.98801293
 H     36  35   7     1.081086492469   122.86481759     3.94075864
 C     38  36  35     1.390180168288   112.97696670   359.90058787
 H     38  36  35     1.080258982744   123.46150279   180.40714961
 C      8   4   2     1.456060087668   123.73886462   356.95370154
 C     42   8   4     1.384594784693   126.03024086   191.99205054
 S     42   8   4     1.759918938247   124.66059622    13.90673693
 C     43  42   8     1.407574416718   114.50841219   182.84546596
 H     43  42   8     1.081791448201   122.99232664     3.07287338
 C     45  43  42     1.380374951453   113.48666349     0.00000000
 H     45  43  42     1.082126138951   123.23888520   178.44789372
 C     47  45  43     1.461381701644   128.30125005   180.31840965
 C     49  47  45     1.405311528274   121.05012561    24.03212332
 C     50  49  47     1.384709022141   122.01627935   180.63811194
 H     50  49  47     1.084255637108   119.49956798     1.87113786
 C     51  50  49     1.414242583647   121.21559024   359.29708897
 H     51  50  49     1.081266227208   118.43950777   180.04255446
 N     53  51  50     1.382598874909   121.53859839   181.48368815
 C     49  47  45     1.404728250624   122.26630255   204.60842341
 H     56  49  47     1.084653498220   119.53901341     1.09888266
 C     56  49  47     1.385436363028   122.01778677   179.60915072
 H     58  56  49     1.081228969460   118.40557294   180.95273225
 C     40  38  36     2.531816672372   107.43569540   179.64442128
 C     60  40  38     1.423666897873    97.44986402   358.94869543
 N     61  60  40     1.156363864750   177.90021856     1.82439361
 C     60  40  38     1.480832863054   147.32749201   179.22759090
 O     63  60  40     1.206695158398   124.75050383   179.55377552
 O     63  60  40     1.360455064638   112.91815681   359.55477897
 H     65  63  60     0.967649047331   105.72247839   179.70840538
 C     60  40  38     1.369054192536    25.61062304   178.73824448
 H     67  60  40     1.085208708913   114.49186739   179.61227350
 C     55  53  51     1.453997636415   119.81598583   350.92648753
 H     69  55  53     1.099596914146   112.66768316   298.42042434
 H     69  55  53     1.094615240210   111.19920101    59.90320604
 H     69  55  53     1.089280315162   109.04682700   178.25090967
 C     55  53  51     1.453867205490   119.80717181   187.26645206
 H     73  55  53     1.094576560822   111.12286443   300.84476417
 H     73  55  53     1.099696191500   112.71986236    62.31269121
 H     73  55  53     1.089273144349   109.02750414   182.51119735

---------------------------
INTERNAL COORDINATES (A.U.)
---------------------------
 N      0   0   0     0.000000000000     0.00000000     0.00000000
 N      1   0   0     5.207241623541     0.00000000     0.00000000
 C      1   2   0     2.553563989028    60.48768290     0.00000000
 C      2   1   3     2.550892052544    60.58516195     2.47035232
 C      1   2   3     2.492778332498    60.11874009   180.32010199
 C      2   1   3     2.493038798805    60.14356013   183.02117915
 C      3   1   2     2.703823576055   119.35740922   179.50948284
 C      4   2   1     2.713548952830   119.43176401   179.26184299
 C      7   3   1     2.634737053310   116.00697710   177.28400284
 C      9   7   3     2.636836202150   122.91412055     0.54655031
 H      9   7   3     2.045614504537   119.51243179   181.27849835
 H     10   9   7     2.045042244225   117.61777582   178.66760215
 C      5   1   2     2.813183970065   116.06528449   175.54504218
 C     13   5   1     2.648392647120   119.50446576    43.42144329
 C     13   5   1     2.647658381157   121.47688257   226.67057724
 C     14  13   5     2.629527732634   120.51720522   182.10009269
 H     14  13   5     2.046739236886   119.07950896     2.19408460
 C     15  13   5     2.629580948142   120.41329571   176.95417106
 H     15  13   5     2.047148639022   119.95290853   357.76098347
 C     18  15  13     2.634030535931   120.25528196     0.71977002
 H     16  14  13     2.049220382461   119.72673942   180.76985323
 H     18  15  13     2.048996989782   119.62941822   180.76982390
 H     20  18  15     2.049217271487   120.12115985   179.48421402
 C      6   2   1     2.813220737645   116.12626470   175.65887396
 C     24   6   2     2.648075262450   121.53054096   225.62655109
 C     24   6   2     2.648542032598   119.48460692    42.31731052
 C     25  24   6     2.629663948889   120.45997889   177.03437027
 H     25  24   6     2.047063179941   119.96438461   357.84180865
 C     26  24   6     2.629479145098   120.50663653   182.08292262
 H     26  24   6     2.046432864095   119.11975435     1.96889880
 C     27  25  24     2.633940634966   120.23413472     0.63505860
 H     27  25  24     2.049019241663   119.61398524   180.68918385
 H     29  26  24     2.049215344292   119.67306026   180.67046437
 H     31  27  25     2.049347462083   120.11693473   179.46627584
 C      7   3   1     2.757478624614   123.48863157   357.63803661
 C     35   7   3     2.633780727672   125.75679546   191.61316838
 S     35   7   3     3.292899046929   124.35866249    14.04814030
 C     36  35   7     2.642125018434   114.66231074   182.98801293
 H     36  35   7     2.042957397849   122.86481759     3.94075864
 C     38  36  35     2.627059794872   112.97696670   359.90058787
 H     38  36  35     2.041393631095   123.46150279   180.40714961
 C      8   4   2     2.751554800226   123.73886462   356.95370154
 C     42   8   4     2.616504949526   126.03024086   191.99205054
 S     42   8   4     3.325764811188   124.66059622    13.90673693
 C     43  42   8     2.659930160712   114.50841219   182.84546596
 H     43  42   8     2.044289571117   122.99232664     3.07287338
 C     45  43  42     2.608530620372   113.48666349     0.00000000
 H     45  43  42     2.044922044974   123.23888520   178.44789372
 C     47  45  43     2.761611193231   128.30125005   180.31840965
 C     49  47  45     2.655653921280   121.05012561    24.03212332
 C     50  49  47     2.616720827017   122.01627935   180.63811194
 H     50  49  47     2.048946213294   119.49956798     1.87113786
 C     51  50  49     2.672531170022   121.21559024   359.29708897
 H     51  50  49     2.043297047281   118.43950777   180.04255446
 N     53  51  50     2.612733226646   121.53859839   181.48368815
 C     49  47  45     2.654551686261   122.26630255   204.60842341
 H     56  49  47     2.049698061835   119.53901341     1.09888266
 C     56  49  47     2.618095302099   122.01778677   179.60915072
 H     58  56  49     2.043226640342   118.40557294   180.95273225
 C     40  38  36     4.784440132079   107.43569540   179.64442128
 C     60  40  38     2.690340542910    97.44986402   358.94869543
 N     61  60  40     2.185211015541   177.90021856     1.82439361
 C     60  40  38     2.798368561282   147.32749201   179.22759090
 O     63  60  40     2.280323376500   124.75050383   179.55377552
 O     63  60  40     2.570887489673   112.91815681   359.55477897
 H     65  63  60     1.828591693205   105.72247839   179.70840538
 C     60  40  38     2.587137486389    25.61062304   178.73824448
 H     67  60  40     2.050747257991   114.49186739   179.61227350
 C     55  53  51     2.747657332193   119.81598583   350.92648753
 H     69  55  53     2.077937025441   112.66768316   298.42042434
 H     69  55  53     2.068523026013   111.19920101    59.90320604
 H     69  55  53     2.058441478728   109.04682700   178.25090967
 C     55  53  51     2.747410853466   119.80717181   187.26645206
 H     73  55  53     2.068449932562   111.12286443   300.84476417
 H     73  55  53     2.078124632452   112.71986236    62.31269121
 H     73  55  53     2.058427927855   109.02750414   182.51119735

---------------------
BASIS SET INFORMATION
---------------------
There are 5 groups of distinct atoms

 Group   1 Type N   : 11s5p1d contracted to 4s3p1d pattern {6311/311/1}
 Group   2 Type C   : 11s5p1d contracted to 4s3p1d pattern {6311/311/1}
 Group   3 Type H   : 5s1p contracted to 3s1p pattern {311/1}
 Group   4 Type S   : 13s9p1d contracted to 6s5p1d pattern {631111/42111/1}
 Group   5 Type O   : 11s5p1d contracted to 4s3p1d pattern {6311/311/1}

Atom   0N    basis set group =>   1
Atom   1N    basis set group =>   1
Atom   2C    basis set group =>   2
Atom   3C    basis set group =>   2
Atom   4C    basis set group =>   2
Atom   5C    basis set group =>   2
Atom   6C    basis set group =>   2
Atom   7C    basis set group =>   2
Atom   8C    basis set group =>   2
Atom   9C    basis set group =>   2
Atom  10H    basis set group =>   3
Atom  11H    basis set group =>   3
Atom  12C    basis set group =>   2
Atom  13C    basis set group =>   2
Atom  14C    basis set group =>   2
Atom  15C    basis set group =>   2
Atom  16H    basis set group =>   3
Atom  17C    basis set group =>   2
Atom  18H    basis set group =>   3
Atom  19C    basis set group =>   2
Atom  20H    basis set group =>   3
Atom  21H    basis set group =>   3
Atom  22H    basis set group =>   3
Atom  23C    basis set group =>   2
Atom  24C    basis set group =>   2
Atom  25C    basis set group =>   2
Atom  26C    basis set group =>   2
Atom  27H    basis set group =>   3
Atom  28C    basis set group =>   2
Atom  29H    basis set group =>   3
Atom  30C    basis set group =>   2
Atom  31H    basis set group =>   3
Atom  32H    basis set group =>   3
Atom  33H    basis set group =>   3
Atom  34C    basis set group =>   2
Atom  35C    basis set group =>   2
Atom  36S    basis set group =>   4
Atom  37C    basis set group =>   2
Atom  38H    basis set group =>   3
Atom  39C    basis set group =>   2
Atom  40H    basis set group =>   3
Atom  41C    basis set group =>   2
Atom  42C    basis set group =>   2
Atom  43S    basis set group =>   4
Atom  44C    basis set group =>   2
Atom  45H    basis set group =>   3
Atom  46C    basis set group =>   2
Atom  47H    basis set group =>   3
Atom  48C    basis set group =>   2
Atom  49C    basis set group =>   2
Atom  50C    basis set group =>   2
Atom  51H    basis set group =>   3
Atom  52C    basis set group =>   2
Atom  53H    basis set group =>   3
Atom  54N    basis set group =>   1
Atom  55C    basis set group =>   2
Atom  56H    basis set group =>   3
Atom  57C    basis set group =>   2
Atom  58H    basis set group =>   3
Atom  59C    basis set group =>   2
Atom  60C    basis set group =>   2
Atom  61N    basis set group =>   1
Atom  62C    basis set group =>   2
Atom  63O    basis set group =>   5
Atom  64O    basis set group =>   5
Atom  65H    basis set group =>   3
Atom  66C    basis set group =>   2
Atom  67H    basis set group =>   3
Atom  68C    basis set group =>   2
Atom  69H    basis set group =>   3
Atom  70H    basis set group =>   3
Atom  71H    basis set group =>   3
Atom  72C    basis set group =>   2
Atom  73H    basis set group =>   3
Atom  74H    basis set group =>   3
Atom  75H    basis set group =>   3
---------------------------------
AUXILIARY/J BASIS SET INFORMATION
---------------------------------
There are 5 groups of distinct atoms

 Group   1 Type N   : 12s5p4d2f1g contracted to 6s4p3d1f1g pattern {711111/2111/211/2/1}
 Group   2 Type C   : 12s5p4d2f1g contracted to 6s4p3d1f1g pattern {711111/2111/211/2/1}
 Group   3 Type H   : 5s2p1d contracted to 3s1p1d pattern {311/2/1}
 Group   4 Type S   : 14s5p5d2f1g contracted to 8s4p3d1f1g pattern {71111111/2111/311/2/1}
 Group   5 Type O   : 12s5p4d2f1g contracted to 6s4p3d1f1g pattern {711111/2111/211/2/1}

Atom   0N    basis set group =>   1
Atom   1N    basis set group =>   1
Atom   2C    basis set group =>   2
Atom   3C    basis set group =>   2
Atom   4C    basis set group =>   2
Atom   5C    basis set group =>   2
Atom   6C    basis set group =>   2
Atom   7C    basis set group =>   2
Atom   8C    basis set group =>   2
Atom   9C    basis set group =>   2
Atom  10H    basis set group =>   3
Atom  11H    basis set group =>   3
Atom  12C    basis set group =>   2
Atom  13C    basis set group =>   2
Atom  14C    basis set group =>   2
Atom  15C    basis set group =>   2
Atom  16H    basis set group =>   3
Atom  17C    basis set group =>   2
Atom  18H    basis set group =>   3
Atom  19C    basis set group =>   2
Atom  20H    basis set group =>   3
Atom  21H    basis set group =>   3
Atom  22H    basis set group =>   3
Atom  23C    basis set group =>   2
Atom  24C    basis set group =>   2
Atom  25C    basis set group =>   2
Atom  26C    basis set group =>   2
Atom  27H    basis set group =>   3
Atom  28C    basis set group =>   2
Atom  29H    basis set group =>   3
Atom  30C    basis set group =>   2
Atom  31H    basis set group =>   3
Atom  32H    basis set group =>   3
Atom  33H    basis set group =>   3
Atom  34C    basis set group =>   2
Atom  35C    basis set group =>   2
Atom  36S    basis set group =>   4
Atom  37C    basis set group =>   2
Atom  38H    basis set group =>   3
Atom  39C    basis set group =>   2
Atom  40H    basis set group =>   3
Atom  41C    basis set group =>   2
Atom  42C    basis set group =>   2
Atom  43S    basis set group =>   4
Atom  44C    basis set group =>   2
Atom  45H    basis set group =>   3
Atom  46C    basis set group =>   2
Atom  47H    basis set group =>   3
Atom  48C    basis set group =>   2
Atom  49C    basis set group =>   2
Atom  50C    basis set group =>   2
Atom  51H    basis set group =>   3
Atom  52C    basis set group =>   2
Atom  53H    basis set group =>   3
Atom  54N    basis set group =>   1
Atom  55C    basis set group =>   2
Atom  56H    basis set group =>   3
Atom  57C    basis set group =>   2
Atom  58H    basis set group =>   3
Atom  59C    basis set group =>   2
Atom  60C    basis set group =>   2
Atom  61N    basis set group =>   1
Atom  62C    basis set group =>   2
Atom  63O    basis set group =>   5
Atom  64O    basis set group =>   5
Atom  65H    basis set group =>   3
Atom  66C    basis set group =>   2
Atom  67H    basis set group =>   3
Atom  68C    basis set group =>   2
Atom  69H    basis set group =>   3
Atom  70H    basis set group =>   3
Atom  71H    basis set group =>   3
Atom  72C    basis set group =>   2
Atom  73H    basis set group =>   3
Atom  74H    basis set group =>   3
Atom  75H    basis set group =>   3
------------------------------------------------------------------------------
                             ORCA STARTUP CALCULATIONS
                           -- RI-GTO INTEGRALS CHOSEN --
------------------------------------------------------------------------------
------------------------------------------------------------------------------
                   ___                                                        
                  /   \      - P O W E R E D   B Y -                         
                 /     \                                                     
                 |  |  |   _    _      __       _____    __    __             
                 |  |  |  | |  | |    /  \     |  _  \  |  |  /  |          
                  \  \/   | |  | |   /    \    | | | |  |  | /  /          
                 / \  \   | |__| |  /  /\  \   | |_| |  |  |/  /          
                |  |  |   |  __  | /  /__\  \  |    /   |      \           
                |  |  |   | |  | | |   __   |  |    \   |  |\   \          
                \     /   | |  | | |  |  |  |  | |\  \  |  | \   \       
                 \___/    |_|  |_| |__|  |__|  |_| \__\ |__|  \__/        
                                                                              
                      - O R C A' S   B I G   F R I E N D -                    
                                      &                                       
                       - I N T E G R A L  F E E D E R -                       
                                                                              
 v1 FN, 2020, v2 2021, v3 2022-2024                                           
------------------------------------------------------------------------------


----------------------
SHARK INTEGRAL PACKAGE
----------------------

Number of atoms                             ...     76
Number of basis functions                   ...   1048
Number of shells                            ...    504
Maximum angular momentum                    ...      2
Integral batch strategy                     ... SHARK/LIBINT Hybrid
RI-J (if used) integral strategy            ... SPLIT-RIJ (Revised 2003 algorithm where possible)
Printlevel                                  ...      1
Contraction scheme used                     ... SEGMENTED contraction
Prescreening option                         ... SCHWARTZ
   Thresh                                   ... 2.500e-11
   Tcut                                     ... 2.500e-12
   Tpresel                                  ... 2.500e-12 
Coulomb Range Separation                    ... NOT USED
Exchange Range Separation                   ... Long Range
   Mu parameter                             ... 3.300e-01
   Scaling (regular/separated)              ... 1.900e-01 4.600e-01
Multipole approximations                    ... NOT USED
Finite Nucleus Model                        ... NOT USED
CABS basis                                  ... NOT available
Auxiliary Coulomb fitting basis             ... AVAILABLE
   # of basis functions in Aux-J            ...   2664
   # of shells in Aux-J                     ...    864
   Maximum angular momentum in Aux-J        ...      4
Auxiliary J/K fitting basis                 ... NOT available
Auxiliary Correlation fitting basis         ... NOT available
Auxiliary 'external' fitting basis          ... NOT available

Checking pre-screening integrals            ... done (  0.0 sec) Dimension = 504
Check shell pair data                       ... done (  0.0 sec)
Shell pair information
Shell pair cut-off parameter TPreSel        ...   2.5e-12
Total number of shell pairs                 ...    127260
Shell pairs after pre-screening             ...     47265
Total number of primitive shell pairs       ...    497606
Primitive shell pairs kept                  ...    106218
          la=0 lb=0:  13929 shell pairs
          la=1 lb=0:  18813 shell pairs
          la=1 lb=1:   6453 shell pairs
          la=2 lb=0:   4534 shell pairs
          la=2 lb=1:   3128 shell pairs
          la=2 lb=2:    408 shell pairs

Calculating one electron integrals          ... done (  0.2 sec)
Calculating RI/J V-Matrix + Cholesky decomp.... done (  0.2 sec)
Calculating Nuclear repulsion               ... done (  0.0 sec) ENN=   5647.877576610078 Eh

Diagonalization of the overlap matrix:
Smallest eigenvalue                        ... 9.002e-05
Time for diagonalization                   ...    0.116 sec
Threshold for overlap eigenvalues          ... 1.000e-07
Number of eigenvalues below threshold      ... 0
Time for construction of square roots      ...    0.069 sec
Total time needed                          ...    0.186 sec

-------------------
DFT GRID GENERATION
-------------------

General Integration Accuracy     IntAcc      ... 4.388
Radial Grid Type                 RadialGrid  ... OptM3 with GC (2021)
Angular Grid (max. ang.)         AngularGrid ... 4 (Lebedev-302)
Angular grid pruning method      GridPruning ... 4 (adaptive)
Weight generation scheme         WeightScheme... mBecke (2022)
Basis function cutoff            BFCut       ... 1.0000e-11
Integration weight cutoff        WCut        ... 1.0000e-14
Partially contracted basis set               ... off
Rotationally invariant grid construction     ... off
Angular grids for H and He will be reduced by one unit

Total number of grid points                  ...   377867
Total number of batches                      ...     5946
Average number of points per batch           ...       63
Average number of grid points per atom       ...     4972

--------------------
COSX GRID GENERATION
--------------------

GRIDX 1
-------
General Integration Accuracy     IntAcc      ... 3.816
Radial Grid Type                 RadialGrid  ... OptM3 with GC (2021)
Angular Grid (max. ang.)         AngularGrid ... 1 (Lebedev-50)
Angular grid pruning method      GridPruning ... 4 (adaptive)
Weight generation scheme         WeightScheme... mBecke (2022)
Basis function cutoff            BFCut       ... 1.0000e-11
Integration weight cutoff        WCut        ... 1.0000e-14
Partially contracted basis set               ... on
Rotationally invariant grid construction     ... off
Angular grids for H and He will be reduced by one unit

Total number of grid points                  ...    49914
Total number of batches                      ...      430
Average number of points per batch           ...      116
Average number of grid points per atom       ...      657
UseSFitting                                  ... on

GRIDX 2
-------
General Integration Accuracy     IntAcc      ... 4.020
Radial Grid Type                 RadialGrid  ... OptM3 with GC (2021)
Angular Grid (max. ang.)         AngularGrid ... 2 (Lebedev-110)
Angular grid pruning method      GridPruning ... 4 (adaptive)
Weight generation scheme         WeightScheme... mBecke (2022)
Basis function cutoff            BFCut       ... 1.0000e-11
Integration weight cutoff        WCut        ... 1.0000e-14
Partially contracted basis set               ... on
Rotationally invariant grid construction     ... off
Angular grids for H and He will be reduced by one unit

Total number of grid points                  ...   104511
Total number of batches                      ...      854
Average number of points per batch           ...      122
Average number of grid points per atom       ...     1375
UseSFitting                                  ... on

GRIDX 3
-------
General Integration Accuracy     IntAcc      ... 4.338
Radial Grid Type                 RadialGrid  ... OptM3 with GC (2021)
Angular Grid (max. ang.)         AngularGrid ... 3 (Lebedev-194)
Angular grid pruning method      GridPruning ... 4 (adaptive)
Weight generation scheme         WeightScheme... mBecke (2022)
Basis function cutoff            BFCut       ... 1.0000e-11
Integration weight cutoff        WCut        ... 1.0000e-14
Partially contracted basis set               ... on
Rotationally invariant grid construction     ... off
Angular grids for H and He will be reduced by one unit

Total number of grid points                  ...   229465
Total number of batches                      ...     1830
Average number of points per batch           ...      125
Average number of grid points per atom       ...     3019
UseSFitting                                  ... on
Initializing property integral containers    ... done (  0.0 sec)

SHARK setup successfully completed in   9.6 seconds

Maximum memory used throughout the entire STARTUP-calculation: 199.6 MB
-------------------------------------------------------------------------------
                                 ORCA GUESS
                   Start orbitals & Density for SCF / CASSCF
-------------------------------------------------------------------------------

------------
SCF SETTINGS
------------
Hamiltonian:
 Density Functional     Method          .... DFT(GTOs)
 Exchange Functional    Exchange        .... WB88
 Correlation Functional Correlation     .... LYP
 LDA part of GGA corr.  LDAOpt          .... VWN-5
 Gradients option       PostSCFGGA      .... off
 Hybrid DFT is turned on
   Fraction HF Exchange ScalHFX         ....  0.190000
   Scaling of DF-GGA-X  ScalDFX         ....  0.350000
   Scaling of DF-GGA-C  ScalDFC         ....  0.810000
   Scaling of DF-LDA-C  ScalLDAC        ....  1.000000
   Perturbative correction              ....  0.000000
 Long-range corrected/Screened/Range-Separated Hybrid DFT is turned on
   Amount of maximum screened exact exchange              ....  0.460000
   Range separation parameter mu (erf(mu*r12)/r12)        ....  0.330000
 RI-approximation to the Coulomb term is turned on
   Number of AuxJ basis functions       .... 2664
   RIJ-COSX (HFX calculated with COS-X)).... on


General Settings:
 Integral files         IntName         .... QX-DMA
 Hartree-Fock type      HFTyp           .... RHF
 Total Charge           Charge          ....    0
 Multiplicity           Mult            ....    1
 Number of Electrons    NEL             ....  344
 Basis Dimension        Dim             .... 1048
 Nuclear Repulsion      ENuc            ....   5647.8775766101 Eh

Convergence Acceleration:
 AO-DIIS                CNVDIIS         .... on
   Start iteration      DIISMaxIt       ....    12
   Startup error        DIISStart       ....  0.200000
   # of expansion vecs  DIISMaxEq       ....     5
   Bias factor          DIISBfac        ....   1.050
   Max. coefficient     DIISMaxC        ....  10.000
 MO-DIIS                CNVKDIIS        .... off
 Trust-Rad. Augm. Hess. CNVTRAH         .... auto
   Auto Start mean grad. ratio tolernc. ....  1.125000
   Auto Start start iteration           ....    50
   Auto Start num. interpolation iter.  ....    10
   Max. Number of Micro iterations      ....    24
   Max. Number of Macro iterations      .... Maxiter - #DIIS iter
   Number of Davidson start vectors     ....     2
   Converg. threshold    (grad. norm)   ....   1.000e-05
   Grad. Scal. Fac. for Micro threshold ....   0.100
   Minimum threshold for Micro iter.    ....   1.000e-02
   NR start threshold (gradient norm)   ....   1.000e-04
   Initial trust radius                 ....   0.400
   Minimum AH scaling param. (alpha)    ....   1.000
   Maximum AH scaling param. (alpha)    .... 1000.000
   Quad. conv. algorithm                .... NR
   White noise on init. David. guess    .... on
   Maximum white noise                  ....   0.010
   Pseudo random numbers                .... off
   Inactive MOs                         .... canonical
   Orbital update algorithm             .... Taylor
   Preconditioner                       .... Diag
   Full preconditioner red. dimension   ....   250
 SOSCF                  CNVSOSCF        .... on
   Start iteration      SOSCFMaxIt      ....   150
   Startup grad/error   SOSCFStart      ....  0.003300
   Hessian update       SOSCFHessUp     .... L-BFGS
 Level Shifting         CNVShift        .... on
   Level shift para.    LevelShift      ....    0.2500
   Turn off err/grad.   ShiftErr        ....    0.0010
 Zerner damping         CNVZerner       .... off
 Static damping         CNVDamp         .... on
   Fraction old density DampFac         ....    0.7000
   Max. Damping (<1)    DampMax         ....    0.9800
   Min. Damping (>=0)   DampMin         ....    0.0000
   Turn off err/grad.   DampErr         ....    0.1000

SCF Procedure:
 Maximum # iterations   MaxIter         ....   125
 SCF integral mode      SCFMode         .... Direct
   Integral package                     .... SHARK and LIBINT hybrid scheme
 Reset frequency        DirectResetFreq ....    20
 Integral Threshold     Thresh          ....  2.500e-11 Eh
 Primitive CutOff       TCut            ....  2.500e-12 Eh

Convergence Tolerance:
 Convergence Check Mode ConvCheckMode   .... Total+1el-Energy
 Convergence forced     ConvForced      .... 1
 Energy Change          TolE            ....  1.000e-08 Eh
 1-El. energy change                    ....  1.000e-05 Eh
 Orbital Gradient       TolG            ....  1.000e-05
 Orbital Rotation angle TolX            ....  1.000e-05
 DIIS Error             TolErr          ....  5.000e-07

------------------------------
INITIAL GUESS: MODEL POTENTIAL
------------------------------
Loading Hartree-Fock densities                     ... done
Calculating cut-offs                               ... done
Initializing the effective Hamiltonian             ... done
Setting up the integral package (SHARK)            ... done
Starting the Coulomb interaction                   ... done (   3.2 sec)
Making the grid                                    ... done (   1.1 sec)
Mapping shells                                     ... done
Starting the XC term evaluation                    ... done (   0.9 sec)
  promolecular density results
     # of electrons  =    343.987979923
     EX              =   -305.140801571
     EC              =    -11.752447150
     EX+EC           =   -316.893248722
Transforming the Hamiltonian                       ... done (   0.1 sec)
Diagonalizing the Hamiltonian                      ... done (   0.5 sec)
Back transforming the eigenvectors                 ... done (   0.0 sec)
Now organizing SCF variables                       ... done
                      ------------------
                      INITIAL GUESS DONE (   5.8 sec)
                      ------------------
             **** ENERGY FILE WAS UPDATED (QX-DMA.en.tmp) ****
Finished Guess after   6.1 sec
Maximum memory used throughout the entire GUESS-calculation: 128.8 MB

-------------------------------------------------------------------------------------------
                                      ORCA LEAN-SCF
                              memory conserving SCF solver
-------------------------------------------------------------------------------------------

--------------------
CPCM SOLVATION MODEL
--------------------
CPCM parameters:
  Epsilon                                         ...       7.5650
  Refrac                                          ...       1.4050
  Rsolv                                           ...       1.3000
  Surface type                                    ... GAUSSIAN VDW
  Discretization scheme                           ... Constant charge density
    Threshold for H atoms                         ...       5.0000 (charges/Ang^2)
    Threshold for non-H atoms                     ...       5.0000 (charges/Ang^2)
  Epsilon function type                           ...         CPCM
Solvent:                                          ... TETRAHYDROFURAN
Radii:
  Scheme                                          ... Element-dependent radii
  Radius for N  used is    3.5149 Bohr (=   1.8600 Ang.)
  Radius for C  used is    3.8550 Bohr (=   2.0400 Ang.)
  Radius for H  used is    2.4944 Bohr (=   1.3200 Ang.)
  Radius for S  used is    4.0818 Bohr (=   2.1600 Ang.)
  Radius for O  used is    3.4469 Bohr (=   1.8240 Ang.)
Calculating surface                               ...        done! (  0.0s)
Cavity surface points                             ...         6908
Cavity Volume                                     ...    5083.6184
Cavity Surface-area                               ...    2437.1551
Calculating surface distance matrix               ...        done! (  0.2s)
Performing Cholesky decomposition & store         ...        done! (  1.8s)
Overall time for CPCM initialization              ...                 2.0s

----------------------------------------D-I-I-S--------------------------------------------
Iteration    Energy (Eh)           Delta-E    RMSDP     MaxDP     DIISErr   Damp  Time(sec)
-------------------------------------------------------------------------------------------
               ***  Starting incremental Fock matrix formation  ***
    1    -2705.5162180905817877     0.00e+00  8.98e-04  1.03e-01  2.90e-01  0.700 138.9
    2    -2705.9095308020923767    -3.93e-01  6.97e-04  7.80e-02  1.25e-01  0.700  60.2
                               ***Turning on AO-DIIS***
    3    -2706.0940555983206650    -1.85e-01  3.69e-04  3.00e-02  4.16e-02  0.700  58.8
    4    -2706.2042162407842625    -1.10e-01  7.80e-04  6.01e-02  2.77e-02  0.000  55.3
    5    -2706.4418394045906098    -2.38e-01  8.35e-05  5.96e-03  6.86e-03  0.000  59.5
    6    -2706.4430242811768039    -1.18e-03  3.74e-05  2.70e-03  3.86e-03  0.000  50.3
                              *** Initializing SOSCF ***
---------------------------------------S-O-S-C-F--------------------------------------
Iteration    Energy (Eh)           Delta-E    RMSDP     MaxDP     MaxGrad    Time(sec)
--------------------------------------------------------------------------------------
    7    -2706.4432967306265709    -2.72e-04  2.23e-05  1.97e-03  1.74e-03    46.7
               *** Restarting incremental Fock matrix formation ***
    8    -2706.4435037767643735    -2.07e-04  2.45e-05  1.75e-03  7.44e-04   137.7
    9    -2706.4435672753415929    -6.35e-05  2.59e-05  2.03e-03  3.30e-04    87.7
   10    -2706.4435770410555051    -9.77e-06  1.13e-05  7.61e-04  3.68e-04    86.8
   11    -2706.4435886006021974    -1.16e-05  4.09e-06  4.82e-04  7.78e-05    79.0
   12    -2706.4435886138317073    -1.32e-08  2.27e-06  2.10e-04  1.13e-04    65.3
   13    -2706.4435893709369338    -7.57e-07  5.57e-07  7.51e-05  1.83e-05    58.9
   14    -2706.4435893841846337    -1.32e-08  2.80e-07  2.84e-05  2.83e-05    39.4
   15    -2706.4435893887157363    -4.53e-09  1.38e-07  1.72e-05  4.18e-06    34.8
                 **** Energy Check signals convergence ****

               *****************************************************
               *                     SUCCESS                       *
               *           SCF CONVERGED AFTER  15 CYCLES          *
               *****************************************************

Recomputing exchange energy using gridx3       ... done (  253.643 sec)
Old exchange energy                            :    -85.906534656 Eh
New exchange energy                            :    -85.906545346 Eh
Exchange energy change after final integration :     -0.000010690 Eh
Total energy after final integration           :  -2706.443600079 Eh
             **** ENERGY FILE WAS UPDATED (QX-DMA.en.tmp) ****

----------------
TOTAL SCF ENERGY
----------------

Total Energy       :      -2706.44360007872183 Eh          -73646.07445 eV

Components:
Nuclear Repulsion  :       5647.87757661007799 Eh          153686.56213 eV
Electronic Energy  :      -8354.28388814960272 Eh         -227331.62191 eV
One Electron Energy:     -14935.44336995183039 Eh         -406414.07579 eV
Two Electron Energy:       6581.15948180222676 Eh          179082.45388 eV
CPCM Dielectric    :         -0.03727784919081 Eh              -1.01438 eV

Virial components:
Potential Energy   :      -5405.06718333241406 Eh         -147079.35543 eV
Kinetic Energy     :       2698.62358325369269 Eh           73433.28098 eV
Virial Ratio       :          2.00289777976949

DFT components:
N(Alpha)           :      172.000095432891 electrons
N(Beta)            :      172.000095432891 electrons
N(Total)           :      344.000190865783 electrons
E(XC)              :     -237.304284990547 Eh       

CPCM Solvation Model Properties:
Surface-charge          :         -0.04200397966795
Corrected charge        :         -0.00000000000000
Outlying charge corr.   :          0.00005708715205 Eh               0.00155 eV
Free-energy (cav+disp)  :  This term is not implemented in the current solvation scheme

---------------
SCF CONVERGENCE
---------------

  Last Energy change         ...    4.5311e-09  Tolerance :   1.0000e-08
  Last MAX-Density change    ...    1.7187e-05  Tolerance :   1.0000e-07
  Last RMS-Density change    ...    1.3815e-07  Tolerance :   5.0000e-09
  Last DIIS Error            ...    1.7398e-03  Tolerance :   5.0000e-07
  Last Orbital Gradient      ...    4.1842e-06  Tolerance :   1.0000e-05
  Last Orbital Rotation      ...    2.8951e-05  Tolerance :   1.0000e-05


----------------
ORBITAL ENERGIES
----------------

  NO   OCC          E(Eh)            E(eV) 
   0   2.0000     -88.960529     -2420.7391 
   1   2.0000     -88.943889     -2420.2863 
   2   2.0000     -19.243118      -523.6319 
   3   2.0000     -19.192241      -522.2474 
   4   2.0000     -14.411527      -392.1576 
   5   2.0000     -14.410823      -392.1384 
   6   2.0000     -14.402284      -391.9061 
   7   2.0000     -14.394896      -391.7050 
   8   2.0000     -10.398948      -282.9698 
   9   2.0000     -10.320396      -280.8323 
  10   2.0000     -10.318540      -280.7818 
  11   2.0000     -10.309416      -280.5335 
  12   2.0000     -10.309206      -280.5278 
  13   2.0000     -10.308308      -280.5033 
  14   2.0000     -10.307401      -280.4787 
  15   2.0000     -10.300581      -280.2931 
  16   2.0000     -10.299725      -280.2698 
  17   2.0000     -10.294283      -280.1217 
  18   2.0000     -10.292305      -280.0679 
  19   2.0000     -10.288560      -279.9660 
  20   2.0000     -10.285141      -279.8729 
  21   2.0000     -10.284984      -279.8686 
  22   2.0000     -10.282552      -279.8025 
  23   2.0000     -10.270263      -279.4681 
  24   2.0000     -10.270042      -279.4621 
  25   2.0000     -10.269178      -279.4385 
  26   2.0000     -10.268363      -279.4164 
  27   2.0000     -10.266781      -279.3733 
  28   2.0000     -10.266690      -279.3708 
  29   2.0000     -10.264558      -279.3128 
  30   2.0000     -10.262146      -279.2472 
  31   2.0000     -10.256512      -279.0939 
  32   2.0000     -10.255756      -279.0733 
  33   2.0000     -10.255324      -279.0615 
  34   2.0000     -10.254709      -279.0448 
  35   2.0000     -10.254169      -279.0301 
  36   2.0000     -10.253856      -279.0216 
  37   2.0000     -10.253155      -279.0025 
  38   2.0000     -10.252822      -278.9935 
  39   2.0000     -10.252592      -278.9872 
  40   2.0000     -10.252465      -278.9838 
  41   2.0000     -10.251894      -278.9682 
  42   2.0000     -10.251681      -278.9624 
  43   2.0000     -10.249845      -278.9125 
  44   2.0000     -10.249733      -278.9094 
  45   2.0000     -10.244595      -278.7696 
  46   2.0000     -10.240909      -278.6693 
  47   2.0000     -10.240730      -278.6644 
  48   2.0000      -8.048376      -219.0074 
  49   2.0000      -8.032019      -218.5624 
  50   2.0000      -6.012282      -163.6025 
  51   2.0000      -6.008122      -163.4893 
  52   2.0000      -6.005639      -163.4217 
  53   2.0000      -5.996010      -163.1597 
  54   2.0000      -5.991848      -163.0465 
  55   2.0000      -5.989100      -162.9717 
  56   2.0000      -1.201107       -32.6838 
  57   2.0000      -1.111279       -30.2394 
  58   2.0000      -1.088669       -29.6242 
  59   2.0000      -1.032992       -28.1091 
  60   2.0000      -1.016870       -27.6704 
  61   2.0000      -1.007444       -27.4140 
  62   2.0000      -0.991389       -26.9771 
  63   2.0000      -0.978041       -26.6139 
  64   2.0000      -0.964486       -26.2450 
  65   2.0000      -0.948944       -25.8221 
  66   2.0000      -0.948622       -25.8133 
  67   2.0000      -0.934849       -25.4385 
  68   2.0000      -0.925975       -25.1971 
  69   2.0000      -0.888080       -24.1659 
  70   2.0000      -0.886118       -24.1125 
  71   2.0000      -0.853272       -23.2187 
  72   2.0000      -0.847368       -23.0581 
  73   2.0000      -0.839004       -22.8305 
  74   2.0000      -0.837545       -22.7908 
  75   2.0000      -0.836289       -22.7566 
  76   2.0000      -0.835087       -22.7239 
  77   2.0000      -0.830325       -22.5943 
  78   2.0000      -0.824440       -22.4342 
  79   2.0000      -0.815662       -22.1953 
  80   2.0000      -0.798693       -21.7335 
  81   2.0000      -0.793551       -21.5936 
  82   2.0000      -0.763976       -20.7889 
  83   2.0000      -0.758857       -20.6496 
  84   2.0000      -0.749694       -20.4002 
  85   2.0000      -0.732542       -19.9335 
  86   2.0000      -0.726019       -19.7560 
  87   2.0000      -0.709716       -19.3124 
  88   2.0000      -0.692288       -18.8381 
  89   2.0000      -0.688228       -18.7276 
  90   2.0000      -0.687207       -18.6998 
  91   2.0000      -0.682618       -18.5750 
  92   2.0000      -0.678700       -18.4684 
  93   2.0000      -0.664349       -18.0778 
  94   2.0000      -0.650334       -17.6965 
  95   2.0000      -0.647075       -17.6078 
  96   2.0000      -0.637425       -17.3452 
  97   2.0000      -0.628372       -17.0989 
  98   2.0000      -0.620611       -16.8877 
  99   2.0000      -0.612692       -16.6722 
 100   2.0000      -0.607181       -16.5222 
 101   2.0000      -0.606253       -16.4970 
 102   2.0000      -0.598297       -16.2805 
 103   2.0000      -0.585254       -15.9256 
 104   2.0000      -0.581381       -15.8202 
 105   2.0000      -0.578307       -15.7365 
 106   2.0000      -0.568225       -15.4622 
 107   2.0000      -0.561614       -15.2823 
 108   2.0000      -0.552815       -15.0429 
 109   2.0000      -0.544685       -14.8216 
 110   2.0000      -0.544339       -14.8122 
 111   2.0000      -0.540844       -14.7171 
 112   2.0000      -0.536003       -14.5854 
 113   2.0000      -0.535079       -14.5602 
 114   2.0000      -0.532510       -14.4903 
 115   2.0000      -0.528883       -14.3916 
 116   2.0000      -0.521519       -14.1912 
 117   2.0000      -0.520756       -14.1705 
 118   2.0000      -0.519015       -14.1231 
 119   2.0000      -0.508975       -13.8499 
 120   2.0000      -0.505962       -13.7679 
 121   2.0000      -0.499555       -13.5936 
 122   2.0000      -0.495745       -13.4899 
 123   2.0000      -0.495043       -13.4708 
 124   2.0000      -0.493899       -13.4397 
 125   2.0000      -0.491673       -13.3791 
 126   2.0000      -0.489395       -13.3171 
 127   2.0000      -0.486384       -13.2352 
 128   2.0000      -0.481061       -13.0903 
 129   2.0000      -0.479145       -13.0382 
 130   2.0000      -0.473481       -12.8841 
 131   2.0000      -0.469764       -12.7829 
 132   2.0000      -0.465798       -12.6750 
 133   2.0000      -0.460662       -12.5353 
 134   2.0000      -0.459934       -12.5154 
 135   2.0000      -0.458977       -12.4894 
 136   2.0000      -0.456739       -12.4285 
 137   2.0000      -0.454487       -12.3672 
 138   2.0000      -0.450716       -12.2646 
 139   2.0000      -0.447327       -12.1724 
 140   2.0000      -0.443271       -12.0620 
 141   2.0000      -0.441952       -12.0261 
 142   2.0000      -0.438355       -11.9282 
 143   2.0000      -0.431576       -11.7438 
 144   2.0000      -0.429742       -11.6939 
 145   2.0000      -0.426414       -11.6033 
 146   2.0000      -0.422572       -11.4988 
 147   2.0000      -0.419613       -11.4183 
 148   2.0000      -0.416936       -11.3454 
 149   2.0000      -0.413929       -11.2636 
 150   2.0000      -0.413067       -11.2401 
 151   2.0000      -0.411996       -11.2110 
 152   2.0000      -0.407473       -11.0879 
 153   2.0000      -0.400420       -10.8960 
 154   2.0000      -0.397134       -10.8066 
 155   2.0000      -0.383593       -10.4381 
 156   2.0000      -0.373083       -10.1521 
 157   2.0000      -0.366086        -9.9617 
 158   2.0000      -0.364829        -9.9275 
 159   2.0000      -0.343539        -9.3482 
 160   2.0000      -0.341841        -9.3020 
 161   2.0000      -0.328594        -8.9415 
 162   2.0000      -0.326378        -8.8812 
 163   2.0000      -0.320308        -8.7160 
 164   2.0000      -0.318026        -8.6539 
 165   2.0000      -0.315793        -8.5932 
 166   2.0000      -0.314184        -8.5494 
 167   2.0000      -0.310277        -8.4431 
 168   2.0000      -0.298018        -8.1095 
 169   2.0000      -0.288589        -7.8529 
 170   2.0000      -0.262975        -7.1559 
 171   2.0000      -0.229352        -6.2410 
 172   0.0000      -0.077668        -2.1135 
 173   0.0000      -0.045188        -1.2296 
 174   0.0000      -0.017663        -0.4806 
 175   0.0000      -0.005679        -0.1545 
 176   0.0000       0.020873         0.5680 
 177   0.0000       0.022961         0.6248 
 178   0.0000       0.033288         0.9058 
 179   0.0000       0.035552         0.9674 
 180   0.0000       0.038978         1.0606 
 181   0.0000       0.041731         1.1355 
 182   0.0000       0.053279         1.4498 
*Only the first 10 virtual orbitals were printed.

                    ********************************
                    * MULLIKEN POPULATION ANALYSIS *
                    ********************************

-----------------------
MULLIKEN ATOMIC CHARGES
-----------------------
   0 N :   -0.363469
   1 N :   -0.350085
   2 C :    0.169516
   3 C :    0.153213
   4 C :    0.164565
   5 C :    0.157904
   6 C :   -0.055035
   7 C :   -0.018219
   8 C :   -0.042899
   9 C :   -0.059887
  10 H :    0.135196
  11 H :    0.132477
  12 C :   -0.168623
  13 C :   -0.051093
  14 C :   -0.047659
  15 C :   -0.125651
  16 H :    0.130436
  17 C :   -0.121968
  18 H :    0.135991
  19 C :   -0.111971
  20 H :    0.130474
  21 H :    0.130595
  22 H :    0.131530
  23 C :   -0.167930
  24 C :   -0.049128
  25 C :   -0.049518
  26 C :   -0.123133
  27 H :    0.135798
  28 C :   -0.126187
  29 H :    0.131591
  30 C :   -0.112454
  31 H :    0.129930
  32 H :    0.130367
  33 H :    0.130885
  34 C :   -0.241753
  35 C :   -0.049531
  36 S :    0.379010
  37 C :   -0.010509
  38 H :    0.142209
  39 C :   -0.349286
  40 H :    0.148652
  41 C :   -0.283119
  42 C :   -0.046650
  43 S :    0.335418
  44 C :   -0.075644
  45 H :    0.132407
  46 C :   -0.298973
  47 H :    0.128902
  48 C :   -0.035125
  49 C :   -0.073362
  50 C :   -0.173318
  51 H :    0.121631
  52 C :    0.242439
  53 H :    0.135014
  54 N :   -0.462656
  55 C :   -0.118127
  56 H :    0.127688
  57 C :   -0.173955
  58 H :    0.135619
  59 C :   -0.218081
  60 C :    0.048121
  61 N :   -0.255737
  62 C :    0.434515
  63 O :   -0.356495
  64 O :   -0.352025
  65 H :    0.297144
  66 C :    0.115807
  67 H :    0.162376
  68 C :   -0.192239
  69 H :    0.125999
  70 H :    0.132788
  71 H :    0.134497
  72 C :   -0.192950
  73 H :    0.133096
  74 H :    0.126093
  75 H :    0.134552
Sum of atomic charges:   -0.0000000

--------------------------------
MULLIKEN REDUCED ORBITAL CHARGES
--------------------------------
  0 N s       :     3.618803  s :     3.618803
      pz      :     1.117442  p :     3.709103
      px      :     1.079793
      py      :     1.511868
      dz2     :     0.003838  d :     0.035562
      dxz     :     0.006714
      dyz     :     0.004388
      dx2y2   :     0.007239
      dxy     :     0.013383

  1 N s       :     3.618876  s :     3.618876
      pz      :     1.106308  p :     3.695398
      px      :     1.075564
      py      :     1.513526
      dz2     :     0.003859  d :     0.035811
      dxz     :     0.006426
      dyz     :     0.004853
      dx2y2   :     0.007679
      dxy     :     0.012994

  2 C s       :     3.031089  s :     3.031089
      pz      :     0.966615  p :     2.703625
      px      :     0.881897
      py      :     0.855113
      dz2     :     0.005454  d :     0.095771
      dxz     :     0.014876
      dyz     :     0.010927
      dx2y2   :     0.036317
      dxy     :     0.028196

  3 C s       :     3.031871  s :     3.031871
      pz      :     0.982235  p :     2.719993
      px      :     0.807545
      py      :     0.930213
      dz2     :     0.005397  d :     0.094923
      dxz     :     0.014898
      dyz     :     0.009710
      dx2y2   :     0.031271
      dxy     :     0.033646

  4 C s       :     3.047370  s :     3.047370
      pz      :     0.911520  p :     2.691894
      px      :     0.862816
      py      :     0.917558
      dz2     :     0.005459  d :     0.096171
      dxz     :     0.015731
      dyz     :     0.009351
      dx2y2   :     0.030904
      dxy     :     0.034726

  5 C s       :     3.045902  s :     3.045902
      pz      :     0.921674  p :     2.700310
      px      :     0.895484
      py      :     0.883152
      dz2     :     0.005370  d :     0.095884
      dxz     :     0.014084
      dyz     :     0.010581
      dx2y2   :     0.038015
      dxy     :     0.027834

  6 C s       :     3.052806  s :     3.052806
      pz      :     1.009121  p :     2.931717
      px      :     1.009825
      py      :     0.912772
      dz2     :     0.004339  d :     0.070512
      dxz     :     0.009857
      dyz     :     0.010720
      dx2y2   :     0.024351
      dxy     :     0.021245

  7 C s       :     3.060675  s :     3.060675
      pz      :     0.950643  p :     2.884666
      px      :     1.018371
      py      :     0.915652
      dz2     :     0.004272  d :     0.072879
      dxz     :     0.010152
      dyz     :     0.012861
      dx2y2   :     0.020890
      dxy     :     0.024703

  8 C s       :     3.148353  s :     3.148353
      pz      :     0.944583  p :     2.835845
      px      :     0.978766
      py      :     0.912496
      dz2     :     0.003941  d :     0.058701
      dxz     :     0.004347
      dyz     :     0.011577
      dx2y2   :     0.020016
      dxy     :     0.018821

  9 C s       :     3.143730  s :     3.143730
      pz      :     0.978100  p :     2.858949
      px      :     0.941897
      py      :     0.938951
      dz2     :     0.003929  d :     0.057208
      dxz     :     0.006547
      dyz     :     0.007876
      dx2y2   :     0.016627
      dxy     :     0.022229

 10 H s       :     0.839163  s :     0.839163
      pz      :     0.005182  p :     0.025641
      px      :     0.015345
      py      :     0.005115

 11 H s       :     0.841814  s :     0.841814
      pz      :     0.005425  p :     0.025709
      px      :     0.011332
      py      :     0.008951

 12 C s       :     3.117066  s :     3.117066
      pz      :     0.991656  p :     2.981684
      px      :     0.984350
      py      :     1.005679
      dz2     :     0.012632  d :     0.069873
      dxz     :     0.010467
      dyz     :     0.013254
      dx2y2   :     0.013996
      dxy     :     0.019525

 13 C s       :     3.165131  s :     3.165131
      pz      :     0.962218  p :     2.828082
      px      :     0.966274
      py      :     0.899591
      dz2     :     0.006619  d :     0.057880
      dxz     :     0.010030
      dyz     :     0.011750
      dx2y2   :     0.016315
      dxy     :     0.013166

 14 C s       :     3.159361  s :     3.159361
      pz      :     0.935626  p :     2.830171
      px      :     0.916846
      py      :     0.977699
      dz2     :     0.008391  d :     0.058128
      dxz     :     0.009803
      dyz     :     0.012035
      dx2y2   :     0.016216
      dxy     :     0.011682

[...]
   169a -> 172a  :     0.014296 (c= -0.11956458)
   170a -> 172a  :     0.206463 (c= -0.45438222)
   170a -> 173a  :     0.199231 (c=  0.44635296)
   171a -> 172a  :     0.120315 (c=  0.34686441)
   171a -> 173a  :     0.335219 (c=  0.57898077)
   171a -> 175a  :     0.029372 (c=  0.17138216)

STATE  4:  E=   0.137576 au      3.744 eV    30194.3 cm**-1 <S**2> =   0.000000 Mult 1
   161a -> 172a  :     0.101433 (c= -0.31848568)
   161a -> 173a  :     0.058748 (c=  0.24238029)
   163a -> 172a  :     0.321924 (c=  0.56738316)
   163a -> 173a  :     0.169746 (c= -0.41200185)
   163a -> 175a  :     0.030540 (c= -0.17475626)
   167a -> 172a  :     0.053066 (c=  0.23036050)
   167a -> 173a  :     0.026411 (c= -0.16251324)
   169a -> 172a  :     0.044970 (c=  0.21206153)
   169a -> 173a  :     0.010011 (c= -0.10005332)
   171a -> 173a  :     0.030206 (c= -0.17379974)
   171a -> 174a  :     0.017666 (c= -0.13291306)

STATE  5:  E=   0.138132 au      3.759 eV    30316.4 cm**-1 <S**2> =   0.000000 Mult 1
   159a -> 172a  :     0.024515 (c= -0.15657425)
   163a -> 172a  :     0.042709 (c= -0.20666046)
   163a -> 173a  :     0.017618 (c=  0.13273296)
   168a -> 172a  :     0.044762 (c=  0.21157109)
   169a -> 172a  :     0.423022 (c=  0.65040110)
   169a -> 173a  :     0.099971 (c= -0.31618166)
   170a -> 172a  :     0.067822 (c= -0.26042583)
   170a -> 174a  :     0.040811 (c= -0.20201646)
   171a -> 172a  :     0.012047 (c=  0.10975697)
   171a -> 174a  :     0.107212 (c= -0.32743202)

STATE  6:  E=   0.147776 au      4.021 eV    32433.2 cm**-1 <S**2> =   0.000000 Mult 1
   168a -> 175a  :     0.012415 (c= -0.11142224)
   169a -> 172a  :     0.019014 (c=  0.13789245)
   170a -> 172a  :     0.021185 (c= -0.14555076)
   170a -> 173a  :     0.012989 (c= -0.11397095)
   170a -> 174a  :     0.029838 (c=  0.17273816)
   171a -> 172a  :     0.047481 (c=  0.21790095)
   171a -> 174a  :     0.284365 (c=  0.53325901)
   171a -> 175a  :     0.451170 (c= -0.67169179)
   171a -> 176a  :     0.024777 (c= -0.15740723)

STATE  7:  E=   0.155714 au      4.237 eV    34175.3 cm**-1 <S**2> =   0.000000 Mult 1
   159a -> 172a  :     0.017303 (c= -0.13153914)
   163a -> 172a  :     0.012051 (c=  0.10977559)
   168a -> 172a  :     0.091649 (c=  0.30273578)
   169a -> 172a  :     0.123253 (c= -0.35107367)
   169a -> 173a  :     0.034258 (c=  0.18508842)
   170a -> 172a  :     0.023122 (c=  0.15206041)
   170a -> 174a  :     0.062685 (c= -0.25037020)
   171a -> 173a  :     0.043013 (c=  0.20739688)
   171a -> 174a  :     0.211714 (c= -0.46012432)
   171a -> 175a  :     0.232062 (c= -0.48172833)
   171a -> 176a  :     0.017492 (c= -0.13225640)

STATE  8:  E=   0.157865 au      4.296 eV    34647.3 cm**-1 <S**2> =   0.000000 Mult 1
   160a -> 172a  :     0.012951 (c=  0.11380110)
   161a -> 172a  :     0.040229 (c= -0.20057237)
   162a -> 172a  :     0.109836 (c=  0.33141460)
   163a -> 172a  :     0.024741 (c= -0.15729192)
   163a -> 173a  :     0.015935 (c= -0.12623471)
   168a -> 172a  :     0.242974 (c=  0.49292411)
   168a -> 173a  :     0.032144 (c=  0.17928845)
   170a -> 172a  :     0.012083 (c=  0.10992116)
   170a -> 173a  :     0.208323 (c= -0.45642439)
   171a -> 173a  :     0.115418 (c=  0.33973214)
   171a -> 174a  :     0.018379 (c=  0.13556778)
   171a -> 175a  :     0.078728 (c=  0.28058514)

STATE  9:  E=   0.164415 au      4.474 eV    36084.9 cm**-1 <S**2> =   0.000000 Mult 1
   161a -> 172a  :     0.230738 (c= -0.48035223)
   162a -> 172a  :     0.107648 (c=  0.32809811)
   162a -> 173a  :     0.014050 (c=  0.11853260)
   163a -> 172a  :     0.043928 (c= -0.20958988)
   163a -> 173a  :     0.028692 (c= -0.16938654)
   164a -> 172a  :     0.036354 (c= -0.19066839)
   165a -> 172a  :     0.026655 (c=  0.16326459)
   167a -> 172a  :     0.105745 (c= -0.32518509)
   168a -> 172a  :     0.197017 (c= -0.44386569)
   171a -> 174a  :     0.044564 (c= -0.21110098)
   171a -> 175a  :     0.025242 (c= -0.15887628)
   171a -> 176a  :     0.013879 (c= -0.11780767)

STATE 10:  E=   0.165055 au      4.491 eV    36225.3 cm**-1 <S**2> =   0.000000 Mult 1
   162a -> 172a  :     0.023107 (c= -0.15200990)
   163a -> 172a  :     0.094425 (c=  0.30728678)
   164a -> 172a  :     0.016766 (c=  0.12948460)
   167a -> 172a  :     0.389246 (c= -0.62389546)
   167a -> 173a  :     0.100066 (c=  0.31633185)
   167a -> 175a  :     0.022093 (c= -0.14863741)
   170a -> 178a  :     0.018958 (c= -0.13768862)
   171a -> 174a  :     0.017643 (c=  0.13282768)
   171a -> 178a  :     0.172244 (c=  0.41502277)


-----------------------------
TD-DFT/TDA-EXCITATION SPECTRA
-----------------------------

Center of mass = ( -3.5402,  1.0752,  9.2283)
Generating CIS transition densities           ... done

----------------------------------------------------------------------------------------------------
                     ABSORPTION SPECTRUM VIA TRANSITION ELECTRIC DIPOLE MOMENTS    
----------------------------------------------------------------------------------------------------
     Transition      Energy     Energy  Wavelength fosc(D2)      D2        DX        DY        DZ   
                      (eV)      (cm-1)    (nm)                 (au**2)    (au)      (au)      (au)  
----------------------------------------------------------------------------------------------------
  0-1A  ->  1-1A    2.522358   20344.2   491.5   1.780884865  28.81848  -1.26773   5.20167  -0.39238
  0-1A  ->  2-1A    3.336846   26913.5   371.6   0.271240786   3.31788   1.17393  -1.39178   0.05225
  0-1A  ->  3-1A    3.603023   29060.3   344.1   0.033732927   0.38215   0.19391  -0.57769   0.10402
  0-1A  ->  4-1A    3.743622   30194.3   331.2   0.014299718   0.15591   0.35562   0.03510  -0.16797
  0-1A  ->  5-1A    3.758760   30316.4   329.9   0.160877299   1.74700   1.17811   0.59889   0.01948
  0-1A  ->  6-1A    4.021199   32433.2   308.3   0.647930445   6.57680  -0.15069   2.53867  -0.33055
  0-1A  ->  7-1A    4.237195   34175.3   292.6   0.458991767   4.42149  -1.97484   0.69539  -0.19477
  0-1A  ->  8-1A    4.295722   34647.3   288.6   0.052435593   0.49823   0.00233   0.70501  -0.03439
  0-1A  ->  9-1A    4.473959   36084.9   277.1   0.128067872   1.16840  -1.02306  -0.29396   0.18795
  0-1A  -> 10-1A    4.491365   36225.3   276.1   0.179828284   1.63426   1.23237   0.27442   0.20053

----------------------------------------------------------------------------------------------------
                     ABSORPTION SPECTRUM VIA TRANSITION VELOCITY DIPOLE MOMENTS    
----------------------------------------------------------------------------------------------------
     Transition      Energy     Energy  Wavelength fosc(P2)      P2        PX        PY        PZ   
                      (eV)      (cm-1)    (nm)                 (au**2)    (au)      (au)      (au)  
----------------------------------------------------------------------------------------------------
  0-1A  ->  1-1A    2.522358   20344.2   491.5   0.841242763   0.11697   0.10107  -0.32494   0.03420
  0-1A  ->  2-1A    3.336846   26913.5   371.6   0.169197904   0.03112  -0.14358   0.10250   0.00044
  0-1A  ->  3-1A    3.603023   29060.3   344.1   0.032014296   0.00636  -0.02449   0.07403  -0.01670
  0-1A  ->  4-1A    3.743622   30194.3   331.2   0.005167735   0.00107  -0.01384   0.00107  -0.02956
  0-1A  ->  5-1A    3.758760   30316.4   329.9   0.027407959   0.00568  -0.06282  -0.04015   0.01099
  0-1A  ->  6-1A    4.021199   32433.2   308.3   0.453447710   0.10051   0.02078  -0.31431   0.03590
  0-1A  ->  7-1A    4.237195   34175.3   292.6   0.161382354   0.03769   0.15707  -0.11176   0.02308
  0-1A  ->  8-1A    4.295722   34647.3   288.6   0.026614269   0.00630  -0.01161  -0.07793   0.00974
  0-1A  ->  9-1A    4.473959   36084.9   277.1   0.001857288   0.00046   0.01392   0.01599   0.00293
  0-1A  -> 10-1A    4.491365   36225.3   276.1   0.001374311   0.00034  -0.00045   0.01843  -0.00072

------------------------------------------------------------------------------------------
                     CD SPECTRUM VIA TRANSITION ELECTRIC DIPOLE MOMENTS    
------------------------------------------------------------------------------------------
     Transition      Energy     Energy  Wavelength    R        MX        MY        MZ   
                      (eV)      (cm-1)    (nm)   (1e40*cgs)   (au)      (au)      (au)  
------------------------------------------------------------------------------------------
  0-1A  ->  1-1A    2.522358   20344.2   491.5    7.46361  -0.10712   0.05696   1.14152
  0-1A  ->  2-1A    3.336846   26913.5   371.6   65.69790  -0.13823  -0.02047  -0.10656
  0-1A  ->  3-1A    3.603023   29060.3   344.1   -3.61799   0.05020  -0.02164  -0.13999
  0-1A  ->  4-1A    3.743622   30194.3   331.2   -3.91681  -0.01237  -0.00978  -0.07770
  0-1A  ->  5-1A    3.758760   30316.4   329.9   -0.14405  -0.00123   0.00178   0.03554
  0-1A  ->  6-1A    4.021199   32433.2   308.3   70.69326  -0.21626   0.06873   1.08008
  0-1A  ->  7-1A    4.237195   34175.3   292.6  -46.53634  -0.05568   0.03446   0.18082
  0-1A  ->  8-1A    4.295722   34647.3   288.6   -6.09943   0.01141   0.01540  -0.05972
  0-1A  ->  9-1A    4.473959   36084.9   277.1   -6.10740  -0.00146   0.02989   0.10772
  0-1A  -> 10-1A    4.491365   36225.3   276.1   43.11691  -0.05057  -0.03698  -0.09466

------------------------------------------------------------------------------------------
                     CD SPECTRUM VIA TRANSITION VELOCITY DIPOLE MOMENTS    
------------------------------------------------------------------------------------------
     Transition      Energy     Energy  Wavelength    R        MX        MY        MZ   
                      (eV)      (cm-1)    (nm)   (1e40*cgs)   (au)      (au)      (au)  
------------------------------------------------------------------------------------------
  0-1A  ->  1-1A    2.522358   20344.2   491.5   49.37893  -0.10712   0.05696   1.14152
  0-1A  ->  2-1A    3.336846   26913.5   371.6   68.06113  -0.13823  -0.02047  -0.10656
  0-1A  ->  3-1A    3.603023   29060.3   344.1   -1.75887   0.05020  -0.02164  -0.13999
  0-1A  ->  4-1A    3.743622   30194.3   331.2    8.42215  -0.01237  -0.00978  -0.07770
  0-1A  ->  5-1A    3.758760   30316.4   329.9    1.35354  -0.00123   0.00178   0.03554
  0-1A  ->  6-1A    4.021199   32433.2   308.3   40.45231  -0.21626   0.06873   1.08008
  0-1A  ->  7-1A    4.237195   34175.3   292.6  -25.50328  -0.05568   0.03446   0.18082
  0-1A  ->  8-1A    4.295722   34647.3   288.6   -5.71684   0.01141   0.01540  -0.05972
  0-1A  ->  9-1A    4.473959   36084.9   277.1    2.21720  -0.00146   0.02989   0.10772
  0-1A  -> 10-1A    4.491365   36225.3   276.1   -1.68723  -0.05057  -0.03698  -0.09466

Total run time:     3427.354 sec

           *** ORCA-CIS/TD-DFT FINISHED WITHOUT ERROR ***
-----------------------
CIS/TD-DFT TOTAL ENERGY
-----------------------

    E(SCF)  =  -2706.443600079 Eh
    DE(CIS) =      0.092694957 Eh (Root  1)
    ----------------------------- ---------
    E(tot)  =  -2706.350905122 Eh


Maximum memory used throughout the entire CIS-calculation: 585.8 MB
=> NOW LEAVING ORCA_CIS

-------------------------   --------------------
FINAL SINGLE POINT ENERGY     -2706.350905121888
-------------------------   --------------------


------------------------------------------------------------------------------
                              ORCA PROPERTY CALCULATIONS
------------------------------------------------------------------------------

GBWName                                 ... QX-DMA.gbw
Number of atoms                         ...     76
Number of basis functions               ...   1048
Max core memory                         ...   1024 MB

Electric properties:
Dipole moment                           ... YES
Quadrupole moment                       ...  NO
Static polarizability (Dipole/Dipole)   ...  NO
Static polarizability (Dipole/Quad.)    ...  NO
Static polarizability (Quad./Quad.)     ...  NO
Static polarizability (Velocity)        ...  NO

Atomic electric properties:
Dipole moment                           ...  NO
Quadrupole moment                       ...  NO
Static polarizability                   ...  NO

Choice of electric origin               ... Center of mass
Position of electric origin             ...    -3.540160     1.075238     9.228266

General magnetic properties:
Magnetizability                         ...  NO

EPR properties:
g-Tensor (aka g-matrix)                 ...  NO
Zero-Field splitting spin-orbit         ...  NO
Zero-field splitting spin-spin          ...  NO
Hyperfine couplings                     ...  NO (   0 nuclei)
Quadrupole couplings                    ...  NO (   0 nuclei)
Contact density                         ...  NO (   0 nuclei)

NMR properties:
Chemical shifts                         ...  NO (   0 nuclei)
Spin-rotation constants                 ...  NO (   0 nuclei)
Spin-spin couplings                     ...  NO (   0 nuclei,    0 pairs)

Choice of magnetic origin               ... GIAO
Position of magnetic origin             ...     0.000000     0.000000     0.000000

Properties with geometric perturbations:
SCF Hessian                             ...  NO
IR spectrum                             ...  NO
VCD spectrum                            ...  NO
X-ray spectroscopy properties:
SCF XES/XAS/RIXS spectra                ...  NO


-------------
DIPOLE MOMENT
-------------

Method             : SCF
Type of density    : Electron Density
Multiplicity       :   1
Irrep              :   0
Energy             : -2706.4436000787218290 Eh
Relativity type    : 
Basis              : AO
                                X                 Y                 Z
Electronic contribution:    -28.448003462      58.268903887      -6.323558408
Nuclear contribution   :     32.181628433     -62.920602157       6.461004390
                        -----------------------------------------
Total Dipole Moment    :      3.733624970      -4.651698270       0.137445982
                        -----------------------------------------
Magnitude (a.u.)       :      5.966334185
Magnitude (Debye)      :     15.165216300



--------------------
Rotational spectrum 
--------------------
 
Rotational constants in cm-1:             0.003884             0.000768             0.000650 
Rotational constants in MHz :           116.443637            23.020072            19.492747 

Dipole components along the rotational axes: 
x,y,z [a.u.] :    -5.466838     2.372110    -0.289702 
x,y,z [Debye]:   -13.895597     6.029423    -0.736363 

 

Dipole moment calculation done in   0.0 sec 

Maximum memory used throughout the entire PROP-calculation: 120.4 MB

--------------------------------
SUGGESTED CITATIONS FOR THIS RUN
--------------------------------

Below you find a list of papers that are relevant to this ORCA run
We neither can nor want to force you to cite these papers, but we appreciate if you do
You receive ORCA, which is the product of decades of hard work by many enthusiastic individuals, for free
The only thing we kindly ask in return is that you cite our papers,
We deeply appreciate it, if you show your appreciation for ORCA by not just citing the generic ORCA reference.

Please note that relegating all ORCA citations to the supporting information does *not* help us.
SI sections are not indexed - citations you put there will not count into any citation statistics
But we need these citations in order to attract the funding resources that allow us to do what we are doing

Therefore, if you are a happy ORCA user, please consider citing a few of the papers listed below in the main body of your paper

In addition to the list printed below, the program has created the file QX-DMA.bibtex that contains the list in bibtex format
You can import this file easily into all common literature databanks and citation aid programs


List of essential papers. We consider these as the minimum necessary citations

  1. Neese,F.
     Software update: the ORCA program system, version 5.0
     WIRES Comput. Molec. Sci., 2022 12(1)e1606
     doi.org/10.1002/wcms.1606

List of papers to cite with high priority. The work reported in these papers was absolutely
necessary for this run to complete.
Our perspective: the developers of density functionals and basis sets usually get cited in chemistry papers
Good! But without the algorithms to do something with them, the functionals or basis sets would not do anything.
Hence, in our opinion, the algorithm design and method developments papers are equally worthy of getting cited

  1. Neese,F.; Olbrich,G.
     Efficient use of the resolution of the identity approximation in time-dependent density functional calculations with hybrid density functionals
     Chem. Phys. Lett., 2002 362 170-178
     doi.org/10.1016/s0009-2614(02)01053-9
  2. Neese,F.
     An improvement of the resolution of the identity approximation for the formation of the Coulomb matrix
     J. Comp. Chem., 2003 24(14)1740-1747
     doi.org/10.1002/jcc.10318
  3. Neese,F.; Wennmohs,F.; Hansen,A.; Becker,U.
     Efficient, approximate and parallel Hartree-Fock and hybrid DFT calculations. A 'chain-of-spheres' algorithm for the Hartree-Fock exchange
     Chem. Phys., 2009 356(1-3)98-109
     doi.org/10.1016/j.chemphys.2008.10.036
  4. Garcia-Rates,M.; Neese,F.
     Effect of the Solute Cavity on the Solvation Energy and its Derivatives within the Framework of the Gaussian Charge Scheme
     J. Comput. Chem., 2020 41 922-939
     doi.org/10.1002/jcc.26139
  5. Helmich-Paris,B.; de Souza,B.; Neese,F.; Izsák,R.
     An improved chain of spheres for exchange algorithm
     J. Chem. Phys., 2021 155 104109
     doi.org/doi: 10.1063/5.0058766.
  6. Neese,F.
     The SHARK Integral Generation and Digestion System
     J. Comp. Chem., 2022  1-16
     doi.org/10.1002/jcc.26942

List of suggested additional citations. These are papers that are important in the 'surrounding' of 
of this run, or papers that preceded the highly important papers. If you like your results we are grateful for a citation.

  1. Izsak,R.; Neese,F.
     An overlap fitted chain of spheres exchange method
     J. Chem. Phys., 2011 135 144105
     doi.org/10.1063/1.3646921
  2. Izsak,R.; Hansen,A.; Neese,F.
     The resolution of identity and chain of spheres approximations for the LPNO-CCSD singles Fock term
     Molec. Phys., 2012 110 2413-2417
     doi.org/10.1080/00268976.2012.687466
  3. Neese,F.
     The ORCA program system
     WIRES Comput. Molec. Sci., 2012 2(1)73-78
     doi.org/10.1002/wcms.81
  4. Izsak,R.; Neese,F.; Klopper,W.
     Robust fitting techniques in the chain of spheres approximation to the Fock exchange: The role of the complementary space
     J. Chem. Phys., 2013 139 
     doi.org/10.1063/1.4819264
  5. Neese,F.
     Software update: the ORCA program system, version 4.0
     WIRES Comput. Molec. Sci., 2018 8(1)1-6
     doi.org/10.1002/wcms.1327
  6. Neese,F.; Wennmohs,F.; Becker,U.; Riplinger,C.
     The ORCA quantum chemistry program package
     J. Chem. Phys., 2020 152 Art. No. L224108
     doi.org/10.1063/5.0004608

List of optional additional citations

  1. Neese,F.
     Approximate second-order SCF convergence for spin unrestricted wavefunctions
     Chem. Phys. Lett., 2000 325(1-3)93-98
     doi.org/10.1016/s0009-2614(00)00662-x

Timings for individual modules:

Sum of individual times          ...     4759.804 sec (=  79.330 min)
Startup calculation              ...        9.743 sec (=   0.162 min)   0.2 %
SCF iterations                   ...     1322.334 sec (=  22.039 min)  27.8 %
Property integrals               ...        0.251 sec (=   0.004 min)   0.0 %
Property calculations            ...        0.096 sec (=   0.002 min)   0.0 %
CIS module                       ...     3427.380 sec (=  57.123 min)  72.0 %
                             ****ORCA TERMINATED NORMALLY****
TOTAL RUN TIME: 0 days 1 hours 19 minutes 19 seconds 899 msec
