
                                 *****************
                                 * O   R   C   A *
                                 *****************

                                            #,                                       
                                            ###                                      
                                            ####                                     
                                            #####                                    
                                            ######                                   
                                           ########,                                 
                                     ,,################,,,,,                         
                               ,,#################################,,                 
                          ,,##########################################,,             
                       ,#########################################, ''#####,          
                    ,#############################################,,   '####,        
                  ,##################################################,,,,####,       
                ,###########''''           ''''###############################       
              ,#####''   ,,,,##########,,,,          '''####'''          '####       
            ,##' ,,,,###########################,,,                        '##       
           ' ,,###''''                  '''############,,,                           
         ,,##''                                '''############,,,,        ,,,,,,###''
      ,#''                                            '''#######################'''  
     '                                                          ''''####''''         
             ,#######,   #######,   ,#######,      ##                                
            ,#'     '#,  ##    ##  ,#'     '#,    #''#        ,####,   ,####,        
            ##       ##  ##   ,#'  ##            #'  '#       #'       #'  '#        
            ##       ##  #######   ##           ,######,      #####,   #    #        
            '#,     ,#'  ##    ##  '#,     ,#' ,#      #,     #,   #   #,  ,#        
             '#######'   ##     ##  '#######'  #'      '#     '####' # '####'        



                #########################################################
                #                        -***-                          #
                #          Department of theory and spectroscopy        #
                #                                                       #
                #                      Frank Neese                      #
                #                                                       #
                #     Directorship, Architecture, Infrastructure        #
                #                    SHARK, DRIVERS                     #
                #        Core code/Algorithms in most modules           #
                #                                                       #
                #        Max Planck Institute fuer Kohlenforschung      #
                #                Kaiser Wilhelm Platz 1                 #
                #                 D-45470 Muelheim/Ruhr                 #
                #                      Germany                          #
                #                                                       #
                #                  All rights reserved                  #
                #                        -***-                          #
                #########################################################


                         Program Version 6.0.1  -  RELEASE   -


 With contributions from (in alphabetic order):
[Max-Planck-Institut fuer Kohlenforschung]                               
  Daniel Aravena         : Magnetic Suceptibility                        
  Michael Atanasov       : Ab Initio Ligand Field Theory (pilot matlab implementation)
  Alexander A. Auer      : GIAO ZORA, VPT2 properties, NMR spectrum      
  Ute Becker             : All parallelization in ORCA, NUMFREQ, NUMCALC 
  Giovanni Bistoni       : ED, misc. LED, open-shell LED, HFLD           
  Martin Brehm           : Molecular dynamics                            
  Dmytro Bykov           : pre 5.0 version of the SCF Hessian            
  Marcos Casanova-Páez   : Triplet and SCS-CIS(D). UHF-(DLPNO)-IP/EA/STEOM-CCSD. UHF-CVS-IP/STEOM-CCSD   
  Vijay G. Chilkuri      : MRCI spin determinant printing, contributions to CSF-ICE 
  Pauline Colinet        : FMM embedding                                 
  Dipayan Datta          : RHF DLPNO-CCSD density                        
  Achintya Kumar Dutta   : EOM-CC, STEOM-CC                              
  Nicolas Foglia         : Exact transition moments, OPA infrastructure, MCD improvements    
  Dmitry Ganyushin       : Spin-Orbit,Spin-Spin,Magnetic field MRCI      
  Miquel Garcia-Rates    : C-PCM and meta-GGA Hessian, CCSD/C-PCM, Gaussian charge scheme 
  Tiago L. C. Gouveia    : GS-ROHF, GS-ROCIS                             
  Yang Guo               : DLPNO-NEVPT2, F12-NEVPT2, CIM, IAO-localization        
  Andreas Hansen         : Spin unrestricted coupled pair/coupled cluster methods 
  Ingolf Harden          : AUTO-CI MPn and infrastructure                
  Benjamin Helmich-Paris : MC-RPA, TRAH-(SCF,CASSCF), AVAS, COSX integrals, SCF dyn. polar. 
  Lee Huntington         : MR-EOM, pCC                                   
  Robert Izsak           : Overlap fitted RIJCOSX, COSX-SCS-MP3, EOM     
  Riya Kayal             : Wick's Theorem for AUTO-CI, AUTO-CI UHF-CCSDT 
  Emily Kempfer          : AUTO-CI, RHF CISDT and CCSDT                  
  Christian Kollmar      : KDIIS, OOCD, Brueckner-CCSD(T), CCSD density, CASPT2, CASPT2-K, improved NEVPT2 
  Axel Koslowski         : Symmetry handling                             
  Simone Kossmann        : meta-GGA functionals, TD-DFT gradient, OOMP2, (MP2 Hessian; deprecated post 5.0) 
  Lucas Lang             : DCDCAS                                        
  Marvin Lechner         : AUTO-CI (C++ implementation), FIC-MRCC        
  Spencer Leger          : CASSCF response                               
  Dagmar Lenk            : GEPOL surface, SMD, ORCA-2-JSON               
  Dimitrios Liakos       : Extrapolation schemes; Compound Job, initial MDCI parallelization 
  Dimitrios Manganas     : Further ROCIS development; embedding schemes. LFT, Crystal Embedding 
  Dimitrios Pantazis     : SARC Basis sets                               
  Anastasios Papadopoulos: AUTO-CI, single reference methods and gradients 
  Taras Petrenko         : pre 6.0 DFT Hessian and TD-DFT gradient, (ASA, deprecated), ECA, 1-Electron XAS/XES, NRVS 
  Peter Pinski           : DLPNO-MP2, DLPNO-MP2 Gradient                 
  Christoph Reimann      : Effective Core Potentials                     
  Marius Retegan         : Local ZFS, SOC                                
  Christoph Riplinger    : Optimizer, TS searches, QM/MM, DLPNO-CCSD(T), (RO)-DLPNO pert. Triples 
  Michael Roemelt        : Original ROCIS implementation                 
  Masaaki Saitow         : Open-shell DLPNO-CCSD energy and density      
  Barbara Sandhoefer     : DKH picture change effects                    
  Kantharuban Sivalingam : CASSCF convergence/infrastructure, NEVPT2 and variants, FIC-MRCI 
  Bernardo de Souza      : ESD, SOC TD-DFT                               
  Georgi L. Stoychev     : AutoAux, RI-MP2 NMR, DLPNO-MP2 response, X2C  
  Van Anh Tran           : RI-MP2 g-tensors                              
  Willem Van den Heuvel  : Paramagnetic NMR                              
  Zikuan Wang            : NOTCH, Electric field optimization            
  Frank Wennmohs         : Technical directorship and infrastructure     
  Hang Xu                : AUTO-CI-Response properties                   
                                                                         
[FACCTs GmbH]                                                            
  Markus Bursch, Miquel Garcia-Rates, Christoph Riplinger, Bernardo de Souza, Georgi L. Stoychev 
                                                                 
  APM, Basis sets (HGBS, AHGBS, def-TZVP (Ac-Lr), def2-XVPD (La-Lu)), CI-OPT, improved COSX, DLPNO-Multilevel,           
  DOCKER, DRACO, updates on ESD, GOAT, IRC, LR-CPCM, MBIS, meta-GGA TD-DFT gradient, ML-optimized integration grids, 
  MM, NACMEs, nearIR, NEB, NEB-TS, NL-DFT gradient (VV10), 2- and 3-layer-ONIOM, interface openCOSMO-RS, QMMM,   
  Crystal-QMMM, SF, symmetry and pop. for TD-DFT, r2SCAN hybrids, SOLVATOR                                   
                                                                         
[Other institutions]                                                     
  V. Asgeirsson          : NEB                                           
  Christoph Bannwarth    : sTDA-DFT, sTD-DFT, PBEh-3c, B97-3c, D3        
  Sebastian Ehlert       : rSCAN, r2SCAN, r2SCAN-3c, D4, dhf basis sets  
  Marvin Friede          : D4 for Fr, Ra, Ac-Lr                          
  Lars Goerigk           : TD-DFT with DH, B97 family of functionals     
  Stefan Grimme          : VdW corrections, initial TS optimization, DFT functionals, gCP, sTDA/sTD-DF 
  Waldemar Hujo          : DFT-NL                                        
  H. Jonsson             : NEB                                           
  Holger Kruse           : gCP                                           
  Marcel Mueller         : wB97X-3c, vDZP basis set                      
  Hagen Neugebauer       : wr2SCAN                                       
  Tobias Risthaus        : range-separated hybrid DFT                    
  Lukas Wittmann         : regularized MP2, r2SCAN double-hybrids, wr2SCAN        
                                                                         
We gratefully acknowledge several colleagues who have allowed us to      
interface, adapt or use parts of their codes:                            
  Ed Valeev, F. Pavosevic, A. Kumar             : LibInt (2-el integral package), F12 methods 
  Garnet Chan, S. Sharma, J. Yang, R. Olivares  : DMRG                   
  Ulf Ekstrom                                   : XCFun DFT Library      
  Mihaly Kallay                                 : mrcc  (arbitrary order and MRCC methods)
  Frank Weinhold                                : gennbo (NPA and NBO analysis)           
  Simon Mueller                                 : openCOSMO-RS                            
  Christopher J. Cramer and Donald G. Truhlar   : smd solvation model                     
  S Lehtola, MJT Oliveira, MAL Marques          : LibXC Library                           
  Liviu Ungur et al                             : ANISO software                          


 Your calculation uses the libint2 library for the computation of 2-el integrals
 For citations please refer to: http://libint.valeyev.net

 Your ORCA version has been built with support for libXC version: 6.2.2
 For citations please refer to: https://libxc.gitlab.io

 This ORCA versions uses:
   CBLAS   interface :  Fast vector & matrix operations
   LAPACKE interface :  Fast linear algebra routines
   SCALAPACK package :  Parallel linear algebra routines
   Shared memory     :  Shared parallel matrices
   BLAS/LAPACK       :  OpenBLAS 0.3.27  USE64BITINT DYNAMIC_ARCH NO_AFFINITY Cooperlake SINGLE_THREADED
        Core in use  :  Cooperlake
   Copyright (c) 2011-2014, The OpenBLAS Project


XCFun DFT library Copyright 2009-2010 Ulf Ekstrom and contributors.
See http://admol.org/xcfun for more information.
This is free software; see the source code for copying conditions.
There is ABSOLUTELY NO WARRANTY; not even for MERCHANTABILITY or FITNESS FOR A PARTICULAR PURPOSE.
For details see the documentation.
Scientific users of this library should cite U. Ekstrom, L. Visscher, R. Bast, A. J. Thorvaldsen and K. Ruud;
J.Chem.Theor.Comp. 2010, DOI: 10.1021/ct100117s
XCFun Version 0.99 

Warning: RI is on but no J-basis has been assigned. Assigning Def2/J (nothing to worry about!)
================================================================================

----- Orbital basis set information -----
Your calculation utilizes the basis: 6-311G(d,p)
   H, Li - Ne  : R. Krishnan, J. S. Binkley, R. Seeger and J. A. Pople, J. Chem. Phys. 72, 650 (1980).
   Na - Ar     : A. D. McLean and G. S. Chandler J. Chem. Phys. 72, 5639, (1980).
   K  - Ca     : J.-P. Blaudeau, M. P. McGrath, L. A. Curtiss and L. Radom, J. Chem. Phys. 107, 5016 (1997).
   Ga - Kr     : L. A. Curtiss, M. P. McGrath, J.-P. Blandeau, N. E. Davis, R. C. Binning and L. Radom, J. Chem. Phys. 103, 6104 (1995).
   Pol./Diff.
   H, Li - Cl  : T. Clark, J. Chandrasekhar and P. v. R. Schleyer, J. Comp. Chem. 4, 294 (1983).
   H - Ne      : M. J. Frisch, J. A. Pople and J. S. Binkley, J. Chem. Phys. 80, 3265 (1984).

----- AuxJ basis set information -----
Your calculation utilizes the auxiliary basis: def2/J
   F. Weigend, Phys. Chem. Chem. Phys. 8, 1057 (2006).

================================================================================
                                        WARNINGS
                       Please study these warnings very carefully!
================================================================================

INFO   : Checking CIS options ...

WARNING: CIS/ROCIS methods need fully converged wavefunctions
  ===> : Setting SCFConvForced true
         You can overwrite this default with %scf ConvForced false 


================================================================================
                                       INPUT FILE
================================================================================
NAME = QX-TPA.inp
|  1> ! CAM-B3LYP 6-311G(d,p) TightSCF CPCM(THF)
|  2> 
|  3> %tddft
|  4>   nroots 10      
|  5> end
|  6> 
|  7> * xyz 0 1
|  8>    N       -1.92612        2.37327        4.62138
|  9>    N       -1.35433       -0.31369        4.83617
| 10>    C       -2.91762        1.50300        4.91396
| 11>    C       -2.62988        0.10621        4.97566
| 12>    C       -0.69240        1.94683        4.43178
| 13>    C       -0.38192        0.54825        4.60961
| 14>    C       -4.24592        1.99488        5.11786
| 15>    C       -3.66633       -0.85620        5.21906
| 16>    C       -5.22458        1.03173        5.35748
| 17>    C       -4.94581       -0.33489        5.41282
| 18>    H       -6.25291        1.33888        5.49837
| 19>    H       -5.76746       -1.00590        5.62660
| 20>    C        0.29770        2.97393        4.00758
| 21>    C        0.30369        4.22772        4.63378
| 22>    C        1.18478        2.74057        2.94840
| 23>    C        1.19205        5.21734        4.22431
| 24>    H       -0.39126        4.41573        5.44293
| 25>    C        2.05929        3.73833        2.52898
| 26>    H        1.18272        1.78264        2.44253
| 27>    C        2.07151        4.97604        3.16993
| 28>    H        1.19499        6.17863        4.72615
| 29>    H        2.73161        3.54801        1.69991
| 30>    H        2.75996        5.74915        2.84713
| 31>    C        0.99718       -0.01148        4.58570
| 32>    C        2.05498        0.61509        5.25812
| 33>    C        1.23487       -1.23063        3.93613
| 34>    C        3.32083        0.03735        5.27456
| 35>    H        1.88703        1.54853        5.78148
| 36>    C        2.50556       -1.79743        3.93996
| 37>    H        0.41521       -1.72729        3.43195
| 38>    C        3.55237       -1.16563        4.60974
| 39>    H        4.12668        0.52779        5.80909
| 40>    H        2.67676       -2.73556        3.42378
| 41>    H        4.54155       -1.60994        4.61713
| 42>    C       -4.59498        3.41156        5.07727
| 43>    C       -5.80880        3.96278        5.48277
| 44>    S       -3.55619        4.66300        4.45184
| 45>    C       -5.91807        5.34269        5.28444
| 46>    H       -6.59960        3.37684        5.92999
| 47>    C       -4.77873        5.90063        4.71649
| 48>    H       -6.79378        5.91546        5.55262
| 49>    C       -3.43806       -2.29511        5.26872
| 50>    C       -4.41534       -3.27558        5.27762
| 51>    S       -1.85350       -3.04982        5.37530
| 52>    C       -3.92131       -4.58941        5.38935
| 53>    H       -5.47184       -3.05656        5.20101
| 54>    C       -2.54575       -4.65364        5.47016
| 55>    H       -4.56084       -5.46128        5.43197
| 56>    C       -1.69928       -5.84163        5.58508
| 57>    C       -2.15653       -7.09763        5.14787
| 58>    C       -1.37381       -8.23555        5.26347
| 59>    H       -3.14029       -7.18396        4.70121
| 60>    C       -0.07957       -8.16571        5.80474
| 61>    H       -1.75950       -9.18874        4.92343
| 62>    N        0.72710       -9.32231        5.91183
| 63>    C        0.68403      -10.32656        4.90303
| 64>    C        0.69452       -9.97640        3.54589
| 65>    C        0.64889      -10.96321        2.56597
| 66>    H        0.73732       -8.93064        3.26557
| 67>    C        0.61056      -12.31138        2.91909
| 68>    H        0.65795      -10.67521        1.52032
| 69>    H        0.58201      -13.07770        2.15304
| 70>    C        0.61056      -12.66307        4.26801
| 71>    H        0.57548      -13.70777        4.55737
| 72>    C        0.63873      -11.68233        5.25476
| 73>    H        0.62806      -11.96069        6.30183
| 74>    C       -0.40638       -5.78425        6.13386
| 75>    H       -0.01666       -4.83811        6.49265
| 76>    C        0.39083       -6.91449        6.23361
| 77>    H        1.38529       -6.83338        6.65465
| 78>    C        1.59445       -9.49357        7.02876
| 79>    C        2.91064       -9.93650        6.84184
| 80>    C        1.14320       -9.23001        8.32911
| 81>    C        3.75227      -10.11703        7.93522
| 82>    H        3.26666      -10.13907        5.83875
| 83>    C        1.99692       -9.39700        9.41515
| 84>    H        0.12424       -8.89481        8.48203
| 85>    C        3.30378       -9.84469        9.22670
| 86>    H        4.76819      -10.46078        7.77369
| 87>    H        1.63236       -9.18915       10.41527
| 88>    H        3.96381       -9.98045       10.07575
| 89>    C       -5.20568        8.38084        4.44228
| 90>    C       -6.53323        8.39681        4.95643
| 91>    N       -7.60810        8.36794        5.38169
| 92>    C       -4.68354        9.69528        4.00170
| 93>    O       -5.30014       10.73112        4.05097
| 94>    O       -3.41187        9.62653        3.52406
| 95>    H       -3.17895       10.52957        3.26575
| 96>    C       -4.45300        7.24125        4.35371
| 97>    H       -3.46098        7.38774        3.93888
| 98> *
| 99> 
|100> 
|101>                          ****END OF INPUT****
================================================================================

                       ****************************
                       * Single Point Calculation *
                       ****************************

---------------------------------
CARTESIAN COORDINATES (ANGSTROEM)
---------------------------------
  N     -1.926120    2.373270    4.621380
  N     -1.354330   -0.313690    4.836170
  C     -2.917620    1.503000    4.913960
  C     -2.629880    0.106210    4.975660
  C     -0.692400    1.946830    4.431780
  C     -0.381920    0.548250    4.609610
  C     -4.245920    1.994880    5.117860
  C     -3.666330   -0.856200    5.219060
  C     -5.224580    1.031730    5.357480
  C     -4.945810   -0.334890    5.412820
  H     -6.252910    1.338880    5.498370
  H     -5.767460   -1.005900    5.626600
  C      0.297700    2.973930    4.007580
  C      0.303690    4.227720    4.633780
  C      1.184780    2.740570    2.948400
  C      1.192050    5.217340    4.224310
  H     -0.391260    4.415730    5.442930
  C      2.059290    3.738330    2.528980
  H      1.182720    1.782640    2.442530
  C      2.071510    4.976040    3.169930
  H      1.194990    6.178630    4.726150
  H      2.731610    3.548010    1.699910
  H      2.759960    5.749150    2.847130
  C      0.997180   -0.011480    4.585700
  C      2.054980    0.615090    5.258120
  C      1.234870   -1.230630    3.936130
  C      3.320830    0.037350    5.274560
  H      1.887030    1.548530    5.781480
  C      2.505560   -1.797430    3.939960
  H      0.415210   -1.727290    3.431950
  C      3.552370   -1.165630    4.609740
  H      4.126680    0.527790    5.809090
  H      2.676760   -2.735560    3.423780
  H      4.541550   -1.609940    4.617130
  C     -4.594980    3.411560    5.077270
  C     -5.808800    3.962780    5.482770
  S     -3.556190    4.663000    4.451840
  C     -5.918070    5.342690    5.284440
  H     -6.599600    3.376840    5.929990
  C     -4.778730    5.900630    4.716490
  H     -6.793780    5.915460    5.552620
  C     -3.438060   -2.295110    5.268720
  C     -4.415340   -3.275580    5.277620
  S     -1.853500   -3.049820    5.375300
  C     -3.921310   -4.589410    5.389350
  H     -5.471840   -3.056560    5.201010
  C     -2.545750   -4.653640    5.470160
  H     -4.560840   -5.461280    5.431970
  C     -1.699280   -5.841630    5.585080
  C     -2.156530   -7.097630    5.147870
  C     -1.373810   -8.235550    5.263470
  H     -3.140290   -7.183960    4.701210
  C     -0.079570   -8.165710    5.804740
  H     -1.759500   -9.188740    4.923430
  N      0.727100   -9.322310    5.911830
  C      0.684030  -10.326560    4.903030
  C      0.694520   -9.976400    3.545890
  C      0.648890  -10.963210    2.565970
  H      0.737320   -8.930640    3.265570
  C      0.610560  -12.311380    2.919090
  H      0.657950  -10.675210    1.520320
  H      0.582010  -13.077700    2.153040
  C      0.610560  -12.663070    4.268010
  H      0.575480  -13.707770    4.557370
  C      0.638730  -11.682330    5.254760
  H      0.628060  -11.960690    6.301830
  C     -0.406380   -5.784250    6.133860
  H     -0.016660   -4.838110    6.492650
  C      0.390830   -6.914490    6.233610
  H      1.385290   -6.833380    6.654650
  C      1.594450   -9.493570    7.028760
  C      2.910640   -9.936500    6.841840
  C      1.143200   -9.230010    8.329110
  C      3.752270  -10.117030    7.935220
  H      3.266660  -10.139070    5.838750
  C      1.996920   -9.397000    9.415150
  H      0.124240   -8.894810    8.482030
  C      3.303780   -9.844690    9.226700
  H      4.768190  -10.460780    7.773690
  H      1.632360   -9.189150   10.415270
  H      3.963810   -9.980450   10.075750
  C     -5.205680    8.380840    4.442280
  C     -6.533230    8.396810    4.956430
  N     -7.608100    8.367940    5.381690
  C     -4.683540    9.695280    4.001700
  O     -5.300140   10.731120    4.050970
  O     -3.411870    9.626530    3.524060
  H     -3.178950   10.529570    3.265750
  C     -4.453000    7.241250    4.353710
  H     -3.460980    7.387740    3.938880

----------------------------
CARTESIAN COORDINATES (A.U.)
----------------------------
  NO LB      ZA    FRAG     MASS         X           Y           Z
   0 N     7.0000    0    14.007   -3.639839    4.484830    8.733143
   1 N     7.0000    0    14.007   -2.559313   -0.592788    9.139037
   2 C     6.0000    0    12.011   -5.513503    2.840258    9.286039
   3 C     6.0000    0    12.011   -4.969753    0.200708    9.402635
   4 C     6.0000    0    12.011   -1.308446    3.678976    8.374850
   5 C     6.0000    0    12.011   -0.721724    1.036042    8.710900
   6 C     6.0000    0    12.011   -8.023626    3.769777    9.671354
   7 C     6.0000    0    12.011   -6.928360   -1.617984    9.862594
   8 C     6.0000    0    12.011   -9.873025    1.949687   10.124170
   9 C     6.0000    0    12.011   -9.346226   -0.632850   10.228747
  10 H     1.0000    0     1.008  -11.816287    2.530117   10.390413
  11 H     1.0000    0     1.008  -10.898920   -1.900876   10.632733
  12 C     6.0000    0    12.011    0.562571    5.619913    7.573229
  13 C     6.0000    0    12.011    0.573891    7.989233    8.756575
  14 C     6.0000    0    12.011    2.238910    5.178927    5.571669
  15 C     6.0000    0    12.011    2.252648    9.859344    7.982789
  16 H     1.0000    0     1.008   -0.739374    8.344520   10.285647
  17 C     6.0000    0    12.011    3.891494    7.064420    4.779080
  18 H     1.0000    0     1.008    2.235017    3.368701    4.615713
  19 C     6.0000    0    12.011    3.914587    9.403353    5.990300
  20 H     1.0000    0     1.008    2.258204   11.675919    8.931129
  21 H     1.0000    0     1.008    5.161995    6.704767    3.212364
  22 H     1.0000    0     1.008    5.215569   10.864319    5.380296
  23 C     6.0000    0    12.011    1.884397   -0.021694    8.665717
  24 C     6.0000    0    12.011    3.883349    1.162352    9.936407
  25 C     6.0000    0    12.011    2.333566   -2.325554    7.438208
  26 C     6.0000    0    12.011    6.275459    0.070581    9.967474
  27 H     1.0000    0     1.008    3.565970    2.926298   10.925414
  28 C     6.0000    0    12.011    4.734822   -3.396650    7.445445
  29 H     1.0000    0     1.008    0.784633   -3.264105    6.485446
  30 C     6.0000    0    12.011    6.713006   -2.202721    8.711146
  31 H     1.0000    0     1.008    7.798295    0.997379   10.977589
  32 H     1.0000    0     1.008    5.058343   -5.169459    6.470007
  33 H     1.0000    0     1.008    8.582286   -3.042346    8.725111
  34 C     6.0000    0    12.011   -8.683254    6.446914    9.594650
  35 C     6.0000    0    12.011  -10.977041    7.488569   10.360934
  36 S    16.0000    0    32.060   -6.720225    8.811793    8.412758
  37 C     6.0000    0    12.011  -11.183532   10.096221    9.986144
  38 H     1.0000    0     1.008  -12.471437    6.381303   11.206057
  39 C     6.0000    0    12.011   -9.030491   11.150575    8.912874
  40 H     1.0000    0     1.008  -12.838384   11.178599   10.492931
  41 C     6.0000    0    12.011   -6.496992   -4.337129    9.956438
  42 C     6.0000    0    12.011   -8.343783   -6.189949    9.973256
  43 S    16.0000    0    32.060   -3.502607   -5.763325   10.157845
  44 C     6.0000    0    12.011   -7.410202   -8.672728   10.184396
  45 H     1.0000    0     1.008  -10.340279   -5.776061    9.828485
  46 C     6.0000    0    12.011   -4.810770   -8.794105   10.337104
  47 H     1.0000    0     1.008   -8.618739  -10.320324   10.264936
  48 C     6.0000    0    12.011   -3.211174  -11.039081   10.554272
  49 C     6.0000    0    12.011   -4.075251  -13.412577    9.728064
  50 C     6.0000    0    12.011   -2.596125  -15.562934    9.946517
  51 H     1.0000    0     1.008   -5.934288  -13.575717    8.883999
  52 C     6.0000    0    12.011   -0.150366  -15.430956   10.969369
  53 H     1.0000    0     1.008   -3.324973  -17.364202    9.303934
  54 N     7.0000    0    14.007    1.374020  -17.616613   11.171740
  55 C     6.0000    0    12.011    1.292629  -19.514370    9.265384
  56 C     6.0000    0    12.011    1.312453  -18.852664    6.700761
  57 C     6.0000    0    12.011    1.226224  -20.717464    4.848981
  58 H     1.0000    0     1.008    1.393333  -16.876464    6.171033
  59 C     6.0000    0    12.011    1.153791  -23.265137    5.516281
  60 H     1.0000    0     1.008    1.243345  -20.173223    2.872988
  61 H     1.0000    0     1.008    1.099840  -24.713271    4.068656
  62 C     6.0000    0    12.011    1.153791  -23.929734    8.065370
  63 H     1.0000    0     1.008    1.087500  -25.903931    8.612181
  64 C     6.0000    0    12.011    1.207025  -22.076404    9.930057
  65 H     1.0000    0     1.008    1.186861  -22.602428   11.908733
  66 C     6.0000    0    12.011   -0.767947  -10.930648   11.591316
  67 H     1.0000    0     1.008   -0.031483   -9.142703   12.269330
  68 C     6.0000    0    12.011    0.738562  -13.066492   11.779816
  69 H     1.0000    0     1.008    2.617819  -12.913217   12.575466
  70 C     6.0000    0    12.011    3.013074  -17.940247   13.282431
  71 C     6.0000    0    12.011    5.500312  -18.777264   12.929204
  72 C     6.0000    0    12.011    2.160335  -17.442191   15.739737
  73 C     6.0000    0    12.011    7.090763  -19.118416   14.995393
  74 H     1.0000    0     1.008    6.173093  -19.160066   11.033638
  75 C     6.0000    0    12.011    3.773632  -17.757756   17.792055
  76 H     1.0000    0     1.008    0.234780  -16.808755   16.028714
  77 C     6.0000    0    12.011    6.243239  -18.603768   17.435936
  78 H     1.0000    0     1.008    9.010573  -19.768009   14.690145
  79 H     1.0000    0     1.008    3.084713  -17.364977   19.682008
  80 H     1.0000    0     1.008    7.490515  -18.860317   19.040408
  81 C     6.0000    0    12.011   -9.837310   15.837492    8.394693
  82 C     6.0000    0    12.011  -12.346015   15.867671    9.366295
  83 N     7.0000    0    14.007  -14.377225   15.813115   10.169920
  84 C     6.0000    0    12.011   -8.850608   18.321424    7.562117
  85 O     8.0000    0    15.999  -10.015813   20.278878    7.655224
  86 O     8.0000    0    15.999   -6.447500   18.191505    6.659508
  87 H     1.0000    0     1.008   -6.007345   19.898004    6.171373
  88 C     6.0000    0    12.011   -8.414950   13.683979    8.227320
  89 H     1.0000    0     1.008   -6.540304   13.960805    7.443404

--------------------------------
INTERNAL COORDINATES (ANGSTROEM)
--------------------------------
 N      0   0   0     0.000000000000     0.00000000     0.00000000
 N      1   0   0     2.755509497316     0.00000000     0.00000000
 C      1   2   0     1.351312391455    60.48712198     0.00000000
 C      2   1   3     1.350111577833    60.57599415     2.46126463
 C      1   2   3     1.319039147258    60.12334864   180.34545372
 C      2   1   3     1.319034194136    60.15748838   183.00153114
 C      3   1   2     1.431049277418   119.37589307   179.49284861
 C      4   2   1     1.435167297077   119.42331772   179.34079556
 C      7   3   1     1.393861923757   116.02064644   177.27796220
 C      8   4   2     1.395125845256   115.80405562   177.13008270
 H      9   7   3     1.082429537430   119.55963336   181.31097005
 H     10   8   4     1.082157581409   119.47680671   181.58806839
 C      5   1   2     1.488347425838   116.10826937   175.58617740
 C     13   5   1     1.401481959998   119.52910136    43.54295873
 C     13   5   1     1.401153128106   121.44517613   226.73233541
 C     14  13   5     1.391472929992   120.49740762   182.05470259
 H     14  13   5     1.083063703159   119.10200294     2.19733477
 C     15  13   5     1.391476156497   120.41924880   176.99263243
 H     15  13   5     1.083299859411   119.93847643   357.80827320
 C     18  15  13     1.393876707245   120.23987431     0.74340974
 H     16  14  13     1.084403289049   119.73623453   180.80392779
 H     18  15  13     1.084247642239   119.62502920   180.76670296
 H     20  18  15     1.084371852549   120.11649325   179.45687807
 C      6   2   1     1.488551702495   116.10699241   175.63761064
 C     24   6   2     1.401313477171   121.56865064   225.53897304
 C     24   6   2     1.401700554148   119.44577045    42.11398027
 C     25  24   6     1.391556683610   120.44452455   176.85860058
 H     25  24   6     1.083246567361   120.00617673   357.71689759
 C     26  24   6     1.391377010375   120.52413220   182.25003059
 H     26  24   6     1.082917884052   119.09813583     2.14654976
 C     27  25  24     1.393828283685   120.25203229     0.64795710
 H     27  25  24     1.084272999295   119.61105423   180.73548097
 H     29  26  24     1.084361161837   119.69000657   180.67876230
 H     31  27  25     1.084409083603   120.12604240   179.50305934
 C      7   3   1     1.459613871577   123.47836020   357.61786450
 C     35   7   3     1.393424820649   125.74499494   191.34282461
 S     35   7   3     1.742512388076   124.36565537    13.66893119
 C     36  35   7     1.398365592361   114.65547403   182.86337241
 H     36  35   7     1.081062464430   122.90126786     3.79633620
 C     38  36  35     1.389949596820   112.95534223   359.89810946
 H     38  36  35     1.080210159830   123.46157544   180.37920452
 C      8   4   2     1.457750080295   123.68419051   357.13968125
 C     42   8   4     1.384368747589   126.06945672   191.40719596
 S     42   8   4     1.758344924666   124.53070980    13.31605433
 C     43  42   8     1.408083272644   114.43526665   182.68512032
 H     43  42   8     1.081679759679   123.06872015     2.94199855
 C     45  43  42     1.379427802605   113.45092917     0.02551973
 H     45  43  42     1.082114773118   123.19899261   178.61239021
 C     47  45  43     1.463228726960   128.26340961   180.41726270
 C     49  47  45     1.406330738696   120.83726803    23.49128077
 C     50  49  47     1.385956667721   121.58203208   180.75550169
 H     50  49  47     1.083855046628   119.62783549     1.27804840
 C     51  50  49     1.404602440586   120.77680183   358.90564135
 H     51  50  49     1.083030541490   119.68936857   179.54246713
 N     53  51  50     1.414181147166   120.93810319   180.64459180
 C     55  53  51     1.424096389785   120.38757110    36.34319456
 C     56  55  53     1.401624430902   120.63040540    44.31437008
 C     57  56  55     1.391445032835   120.29648701   180.15906461
 H     57  56  55     1.083524397510   119.46640935     0.08955073
 C     58  57  56     1.394175481136   120.55226100   359.12501667
 H     58  57  56     1.084624361749   119.36379789   180.01187916
 H     60  58  57     1.083925296042   120.35636928   180.42589277
 C     60  58  57     1.394012561816   119.27818614     0.36902352
 H     63  60  58     1.084600343906   120.07707793   179.66421969
 C     63  60  58     1.391517178838   120.55525138     0.45916482
 H     65  63  60     1.083491450543   120.26577100   179.35436228
 C     49  47  45     1.405717739377   121.97754126   203.63203683
 H     67  49  47     1.084339818553   119.69306173     0.45098471
 C     67  49  47     1.386699788779   121.57206050   180.27360286
 H     69  67  49     1.082960851231   119.65905213   179.52294525
 C     55  53  51     1.424485393046   120.33280158   216.17566412
 C     71  55  53     1.401243086477   120.35369106   224.74281294
 C     71  55  53     1.401428042605   120.58881570    45.12748896
 C     72  71  55     1.391550201107   120.28482549   180.69039709
 H     72  71  55     1.083500989109   119.42157841     0.56905660
 C     73  71  55     1.391476331132   120.27015971   180.12746674
 H     73  71  55     1.083523441371   119.46814679     0.10657108
 C     74  72  71     1.393998904627   120.53145468   359.21037306
 H     74  72  71     1.084596445596   119.38108004   179.97658824
 H     76  73  71     1.084594684894   119.37225927   180.02085599
 H     78  74  72     1.083954003175   120.35204029   180.38205308
 C     40  38  36     2.531584300532   107.41446354   179.72395856
 C     82  40  38     1.423725488253    97.41932986   359.00028326
 N     83  82  40     1.156297998528   177.88555912     1.91093469
 C     82  40  38     1.481382269909   147.35944006   179.25103812
 O     85  82  40     1.206477351010   124.71729271   179.51657953
 O     85  82  40     1.360151139028   112.90041168   359.50574027
 H     87  85  82     0.967707096233   105.75972745   179.76723179
 C     82  40  38     1.368589491192    25.64154769   178.80834491
 H     89  82  40     1.085194420093   114.52459609   179.65607701

---------------------------
INTERNAL COORDINATES (A.U.)
---------------------------
 N      0   0   0     0.000000000000     0.00000000     0.00000000
 N      1   0   0     5.207158309347     0.00000000     0.00000000
 C      1   2   0     2.553610341224    60.48712198     0.00000000
 C      2   1   3     2.551341132342    60.57599415     2.46126463
 C      1   2   3     2.492622748239    60.12334864   180.34545372
 C      2   1   3     2.492613388195    60.15748838   183.00153114
 C      3   1   2     2.704291218467   119.37589307   179.49284861
 C      4   2   1     2.712073147836   119.42331772   179.34079556
 C      7   3   1     2.634017304402   116.02064644   177.27796220
 C      8   4   2     2.636405769888   115.80405562   177.13008270
 H      9   7   3     2.045495385009   119.55963336   181.31097005
 H     10   8   4     2.044981462609   119.47680671   181.58806839
 C      5   1   2     2.812569026961   116.10826937   175.58617740
 C     13   5   1     2.648417086028   119.52910136    43.54295873
 C     13   5   1     2.647795683807   121.44517613   226.73233541
 C     14  13   5     2.629502760450   120.49740762   182.05470259
 H     14  13   5     2.046693784561   119.10200294     2.19733477
 C     15  13   5     2.629508857661   120.41924880   176.99263243
 H     15  13   5     2.047140055202   119.93847643   357.80827320
 C     18  15  13     2.634045241145   120.23987431     0.74340974
 H     16  14  13     2.049225235026   119.73623453   180.80392779
 H     18  15  13     2.048931105181   119.62502920   180.76670296
 H     20  18  15     2.049165828650   120.11649325   179.45687807
 C      6   2   1     2.812955053897   116.10699241   175.63761064
 C     24   6   2     2.648098699625   121.56865064   225.53897304
 C     24   6   2     2.648830169106   119.44577045    42.11398027
 C     25  24   6     2.629661031851   120.44452455   176.85860058
 H     25  24   6     2.047039347823   120.00617673   357.71689759
 C     26  24   6     2.629321498643   120.52413220   182.25003059
 H     26  24   6     2.046418226384   119.09813583     2.14654976
 C     27  25  24     2.633953733878   120.25203229     0.64795710
 H     27  25  24     2.048979023073   119.61105423   180.73548097
 H     29  26  24     2.049145626132   119.69000657   180.67876230
 H     31  27  25     2.049236185146   120.12604240   179.50305934
 C      7   3   1     2.758270478553   123.47836020   357.61786450
 C     35   7   3     2.633191299234   125.74499494   191.34282461
 S     35   7   3     3.292871198430   124.36565537    13.66893119
 C     36  35   7     2.642528004661   114.65547403   182.86337241
 H     36  35   7     2.042911991435   122.90126786     3.79633620
 C     38  36  35     2.626624077944   112.95534223   359.89810946
 H     38  36  35     2.041301369158   123.46157544   180.37920452
 C      8   4   2     2.754748423459   123.68419051   357.13968125
 C     42   8   4     2.616077801302   126.06945672   191.40719596
 S     42   8   4     3.322790356590   124.53070980    13.31605433
 C     43  42   8     2.660891759053   114.43526665   182.68512032
 H     43  42   8     2.044078510400   123.06872015     2.94199855
 C     45  43  42     2.606740768440   113.45092917     0.02551973
 H     45  43  42     2.044900566663   123.19899261   178.61239021
 C     47  45  43     2.765101565240   128.26340961   180.41726270
 C     49  47  45     2.657579949850   120.83726803    23.49128077
 C     50  49  47     2.619078535475   121.58203208   180.75550169
 H     50  49  47     2.048189206995   119.62783549     1.27804840
 C     51  50  49     2.654313939745   120.77680183   358.90564135
 H     51  50  49     2.046631118088   119.68936857   179.54246713
 N     53  51  50     2.672415071898   120.93810319   180.64459180
 C     55  53  51     2.691152165001   120.38757110    36.34319456
 C     56  55  53     2.648686317017   120.63040540    44.31437008
 C     57  56  55     2.629450042462   120.29648701   180.15906461
 H     57  56  55     2.047564370716   119.46640935     0.08955073
 C     58  57  56     2.634609841974   120.55226100   359.12501667
 H     58  57  56     2.049643001885   119.36379789   180.01187916
 H     60  58  57     2.048321959149   120.35636928   180.42589277
 C     60  58  57     2.634301969078   119.27818614     0.36902352
 H     63  60  58     2.049597614738   120.07707793   179.66421969
 C     63  60  58     2.629586378650   120.55525138     0.45916482
 H     65  63  60     2.047502109972   120.26577100   179.35436228
 C     49  47  45     2.656421549018   121.97754126   203.63203683
 H     67  49  47     2.049105293171   119.69306173     0.45098471
 C     67  49  47     2.620482830759   121.57206050   180.27360286
 H     69  67  49     2.046499422586   119.65905213   179.52294525
 C     55  53  51     2.691887274627   120.33280158   216.17566412
 C     71  55  53     2.647965680492   120.35369106   224.74281294
 C     71  55  53     2.648315196921   120.58881570    45.12748896
 C     72  71  55     2.629648781695   120.28482549   180.69039709
 H     72  71  55     2.047520135249   119.42157841     0.56905660
 C     73  71  55     2.629509187673   120.27015971   180.12746674
 H     73  71  55     2.047562563875   119.46814679     0.10657108
 C     74  72  71     2.634276160730   120.53145468   359.21037306
 H     74  72  71     2.049590248001   119.38108004   179.97658824
 H     76  73  71     2.049586920756   119.37225927   180.02085599
 H     78  74  72     2.048376207769   120.35204029   180.38205308
 C     40  38  36     4.784001012940   107.41446354   179.72395856
 C     82  40  38     2.690451262681    97.41932986   359.00028326
 N     83  82  40     2.185086546419   177.88555912     1.91093469
 C     82  40  38     2.799406789774   147.35944006   179.25103812
 O     85  82  40     2.279911780188   124.71729271   179.51657953
 O     85  82  40     2.570313153505   112.90041168   359.50574027
 H     87  85  82     1.828701389733   105.75972745   179.76723179
 C     82  40  38     2.586259328115    25.64154769   178.80834491
 H     89  82  40     2.050720256034   114.52459609   179.65607701

---------------------
BASIS SET INFORMATION
---------------------
There are 5 groups of distinct atoms

 Group   1 Type N   : 11s5p1d contracted to 4s3p1d pattern {6311/311/1}
 Group   2 Type C   : 11s5p1d contracted to 4s3p1d pattern {6311/311/1}
 Group   3 Type H   : 5s1p contracted to 3s1p pattern {311/1}
 Group   4 Type S   : 13s9p1d contracted to 6s5p1d pattern {631111/42111/1}
 Group   5 Type O   : 11s5p1d contracted to 4s3p1d pattern {6311/311/1}

Atom   0N    basis set group =>   1
Atom   1N    basis set group =>   1
Atom   2C    basis set group =>   2
Atom   3C    basis set group =>   2
Atom   4C    basis set group =>   2
Atom   5C    basis set group =>   2
Atom   6C    basis set group =>   2
Atom   7C    basis set group =>   2
Atom   8C    basis set group =>   2
Atom   9C    basis set group =>   2
Atom  10H    basis set group =>   3
Atom  11H    basis set group =>   3
Atom  12C    basis set group =>   2
Atom  13C    basis set group =>   2
Atom  14C    basis set group =>   2
Atom  15C    basis set group =>   2
Atom  16H    basis set group =>   3
Atom  17C    basis set group =>   2
Atom  18H    basis set group =>   3
Atom  19C    basis set group =>   2
Atom  20H    basis set group =>   3
Atom  21H    basis set group =>   3
Atom  22H    basis set group =>   3
Atom  23C    basis set group =>   2
Atom  24C    basis set group =>   2
Atom  25C    basis set group =>   2
Atom  26C    basis set group =>   2
Atom  27H    basis set group =>   3
Atom  28C    basis set group =>   2
Atom  29H    basis set group =>   3
Atom  30C    basis set group =>   2
Atom  31H    basis set group =>   3
Atom  32H    basis set group =>   3
Atom  33H    basis set group =>   3
Atom  34C    basis set group =>   2
Atom  35C    basis set group =>   2
Atom  36S    basis set group =>   4
Atom  37C    basis set group =>   2
Atom  38H    basis set group =>   3
Atom  39C    basis set group =>   2
Atom  40H    basis set group =>   3
Atom  41C    basis set group =>   2
Atom  42C    basis set group =>   2
Atom  43S    basis set group =>   4
Atom  44C    basis set group =>   2
Atom  45H    basis set group =>   3
Atom  46C    basis set group =>   2
Atom  47H    basis set group =>   3
Atom  48C    basis set group =>   2
Atom  49C    basis set group =>   2
Atom  50C    basis set group =>   2
Atom  51H    basis set group =>   3
Atom  52C    basis set group =>   2
Atom  53H    basis set group =>   3
Atom  54N    basis set group =>   1
Atom  55C    basis set group =>   2
Atom  56C    basis set group =>   2
Atom  57C    basis set group =>   2
Atom  58H    basis set group =>   3
Atom  59C    basis set group =>   2
Atom  60H    basis set group =>   3
Atom  61H    basis set group =>   3
Atom  62C    basis set group =>   2
Atom  63H    basis set group =>   3
Atom  64C    basis set group =>   2
Atom  65H    basis set group =>   3
Atom  66C    basis set group =>   2
Atom  67H    basis set group =>   3
Atom  68C    basis set group =>   2
Atom  69H    basis set group =>   3
Atom  70C    basis set group =>   2
Atom  71C    basis set group =>   2
Atom  72C    basis set group =>   2
Atom  73C    basis set group =>   2
Atom  74H    basis set group =>   3
Atom  75C    basis set group =>   2
Atom  76H    basis set group =>   3
Atom  77C    basis set group =>   2
Atom  78H    basis set group =>   3
Atom  79H    basis set group =>   3
Atom  80H    basis set group =>   3
Atom  81C    basis set group =>   2
Atom  82C    basis set group =>   2
Atom  83N    basis set group =>   1
Atom  84C    basis set group =>   2
Atom  85O    basis set group =>   5
Atom  86O    basis set group =>   5
Atom  87H    basis set group =>   3
Atom  88C    basis set group =>   2
Atom  89H    basis set group =>   3
---------------------------------
AUXILIARY/J BASIS SET INFORMATION
---------------------------------
There are 5 groups of distinct atoms

 Group   1 Type N   : 12s5p4d2f1g contracted to 6s4p3d1f1g pattern {711111/2111/211/2/1}
 Group   2 Type C   : 12s5p4d2f1g contracted to 6s4p3d1f1g pattern {711111/2111/211/2/1}
 Group   3 Type H   : 5s2p1d contracted to 3s1p1d pattern {311/2/1}
 Group   4 Type S   : 14s5p5d2f1g contracted to 8s4p3d1f1g pattern {71111111/2111/311/2/1}
 Group   5 Type O   : 12s5p4d2f1g contracted to 6s4p3d1f1g pattern {711111/2111/211/2/1}

Atom   0N    basis set group =>   1
Atom   1N    basis set group =>   1
Atom   2C    basis set group =>   2
Atom   3C    basis set group =>   2
Atom   4C    basis set group =>   2
Atom   5C    basis set group =>   2
Atom   6C    basis set group =>   2
Atom   7C    basis set group =>   2
Atom   8C    basis set group =>   2
Atom   9C    basis set group =>   2
Atom  10H    basis set group =>   3
Atom  11H    basis set group =>   3
Atom  12C    basis set group =>   2
Atom  13C    basis set group =>   2
Atom  14C    basis set group =>   2
Atom  15C    basis set group =>   2
Atom  16H    basis set group =>   3
Atom  17C    basis set group =>   2
Atom  18H    basis set group =>   3
Atom  19C    basis set group =>   2
Atom  20H    basis set group =>   3
Atom  21H    basis set group =>   3
Atom  22H    basis set group =>   3
Atom  23C    basis set group =>   2
Atom  24C    basis set group =>   2
Atom  25C    basis set group =>   2
Atom  26C    basis set group =>   2
Atom  27H    basis set group =>   3
Atom  28C    basis set group =>   2
Atom  29H    basis set group =>   3
Atom  30C    basis set group =>   2
Atom  31H    basis set group =>   3
Atom  32H    basis set group =>   3
Atom  33H    basis set group =>   3
Atom  34C    basis set group =>   2
Atom  35C    basis set group =>   2
Atom  36S    basis set group =>   4
Atom  37C    basis set group =>   2
Atom  38H    basis set group =>   3
Atom  39C    basis set group =>   2
Atom  40H    basis set group =>   3
Atom  41C    basis set group =>   2
Atom  42C    basis set group =>   2
Atom  43S    basis set group =>   4
Atom  44C    basis set group =>   2
Atom  45H    basis set group =>   3
Atom  46C    basis set group =>   2
Atom  47H    basis set group =>   3
Atom  48C    basis set group =>   2
Atom  49C    basis set group =>   2
Atom  50C    basis set group =>   2
Atom  51H    basis set group =>   3
Atom  52C    basis set group =>   2
Atom  53H    basis set group =>   3
Atom  54N    basis set group =>   1
Atom  55C    basis set group =>   2
Atom  56C    basis set group =>   2
Atom  57C    basis set group =>   2
Atom  58H    basis set group =>   3
Atom  59C    basis set group =>   2
Atom  60H    basis set group =>   3
Atom  61H    basis set group =>   3
Atom  62C    basis set group =>   2
Atom  63H    basis set group =>   3
Atom  64C    basis set group =>   2
Atom  65H    basis set group =>   3
Atom  66C    basis set group =>   2
Atom  67H    basis set group =>   3
Atom  68C    basis set group =>   2
Atom  69H    basis set group =>   3
Atom  70C    basis set group =>   2
Atom  71C    basis set group =>   2
Atom  72C    basis set group =>   2
Atom  73C    basis set group =>   2
Atom  74H    basis set group =>   3
Atom  75C    basis set group =>   2
Atom  76H    basis set group =>   3
Atom  77C    basis set group =>   2
Atom  78H    basis set group =>   3
Atom  79H    basis set group =>   3
Atom  80H    basis set group =>   3
Atom  81C    basis set group =>   2
Atom  82C    basis set group =>   2
Atom  83N    basis set group =>   1
Atom  84C    basis set group =>   2
Atom  85O    basis set group =>   5
Atom  86O    basis set group =>   5
Atom  87H    basis set group =>   3
Atom  88C    basis set group =>   2
Atom  89H    basis set group =>   3
------------------------------------------------------------------------------
                             ORCA STARTUP CALCULATIONS
                           -- RI-GTO INTEGRALS CHOSEN --
------------------------------------------------------------------------------
------------------------------------------------------------------------------
                   ___                                                        
                  /   \      - P O W E R E D   B Y -                         
                 /     \                                                     
                 |  |  |   _    _      __       _____    __    __             
                 |  |  |  | |  | |    /  \     |  _  \  |  |  /  |          
                  \  \/   | |  | |   /    \    | | | |  |  | /  /          
                 / \  \   | |__| |  /  /\  \   | |_| |  |  |/  /          
                |  |  |   |  __  | /  /__\  \  |    /   |      \           
                |  |  |   | |  | | |   __   |  |    \   |  |\   \          
                \     /   | |  | | |  |  |  |  | |\  \  |  | \   \       
                 \___/    |_|  |_| |__|  |__|  |_| \__\ |__|  \__/        
                                                                              
                      - O R C A' S   B I G   F R I E N D -                    
                                      &                                       
                       - I N T E G R A L  F E E D E R -                       
                                                                              
 v1 FN, 2020, v2 2021, v3 2022-2024                                           
------------------------------------------------------------------------------


----------------------
SHARK INTEGRAL PACKAGE
----------------------

Number of atoms                             ...     90
Number of basis functions                   ...   1252
Number of shells                            ...    600
Maximum angular momentum                    ...      2
Integral batch strategy                     ... SHARK/LIBINT Hybrid
RI-J (if used) integral strategy            ... SPLIT-RIJ (Revised 2003 algorithm where possible)
Printlevel                                  ...      1
Contraction scheme used                     ... SEGMENTED contraction
Prescreening option                         ... SCHWARTZ
   Thresh                                   ... 2.500e-11
   Tcut                                     ... 2.500e-12
   Tpresel                                  ... 2.500e-12 
Coulomb Range Separation                    ... NOT USED
Exchange Range Separation                   ... Long Range
   Mu parameter                             ... 3.300e-01
   Scaling (regular/separated)              ... 1.900e-01 4.600e-01
Multipole approximations                    ... NOT USED
Finite Nucleus Model                        ... NOT USED
CABS basis                                  ... NOT available
Auxiliary Coulomb fitting basis             ... AVAILABLE
   # of basis functions in Aux-J            ...   3198
   # of shells in Aux-J                     ...   1034
   Maximum angular momentum in Aux-J        ...      4
Auxiliary J/K fitting basis                 ... NOT available
Auxiliary Correlation fitting basis         ... NOT available
Auxiliary 'external' fitting basis          ... NOT available

Checking pre-screening integrals            ... done (  0.0 sec) Dimension = 600
Check shell pair data                       ... done (  0.0 sec)
Shell pair information
Shell pair cut-off parameter TPreSel        ...   2.5e-12
Total number of shell pairs                 ...    180300
Shell pairs after pre-screening             ...     58398
Total number of primitive shell pairs       ...    709967
Primitive shell pairs kept                  ...    131117
          la=0 lb=0:  17209 shell pairs
          la=1 lb=0:  23225 shell pairs
          la=1 lb=1:   7942 shell pairs
          la=2 lb=0:   5634 shell pairs
          la=2 lb=1:   3872 shell pairs
          la=2 lb=2:    516 shell pairs

Calculating one electron integrals          ... done (  0.3 sec)
Calculating RI/J V-Matrix + Cholesky decomp.... done (  0.3 sec)
Calculating Nuclear repulsion               ... done (  0.0 sec) ENN=   7225.578470664169 Eh

Diagonalization of the overlap matrix:
Smallest eigenvalue                        ... 8.959e-05
Time for diagonalization                   ...    0.196 sec
Threshold for overlap eigenvalues          ... 1.000e-07
Number of eigenvalues below threshold      ... 0
Time for construction of square roots      ...    0.114 sec
Total time needed                          ...    0.311 sec

-------------------
DFT GRID GENERATION
-------------------

General Integration Accuracy     IntAcc      ... 4.388
Radial Grid Type                 RadialGrid  ... OptM3 with GC (2021)
Angular Grid (max. ang.)         AngularGrid ... 4 (Lebedev-302)
Angular grid pruning method      GridPruning ... 4 (adaptive)
Weight generation scheme         WeightScheme... mBecke (2022)
Basis function cutoff            BFCut       ... 1.0000e-11
Integration weight cutoff        WCut        ... 1.0000e-14
Partially contracted basis set               ... off
Rotationally invariant grid construction     ... off
Angular grids for H and He will be reduced by one unit

Total number of grid points                  ...   449636
Total number of batches                      ...     7075
Average number of points per batch           ...       63
Average number of grid points per atom       ...     4996

--------------------
COSX GRID GENERATION
--------------------

GRIDX 1
-------
General Integration Accuracy     IntAcc      ... 3.816
Radial Grid Type                 RadialGrid  ... OptM3 with GC (2021)
Angular Grid (max. ang.)         AngularGrid ... 1 (Lebedev-50)
Angular grid pruning method      GridPruning ... 4 (adaptive)
Weight generation scheme         WeightScheme... mBecke (2022)
Basis function cutoff            BFCut       ... 1.0000e-11
Integration weight cutoff        WCut        ... 1.0000e-14
Partially contracted basis set               ... on
Rotationally invariant grid construction     ... off
Angular grids for H and He will be reduced by one unit

Total number of grid points                  ...    58998
Total number of batches                      ...      503
Average number of points per batch           ...      117
Average number of grid points per atom       ...      656
UseSFitting                                  ... on

GRIDX 2
-------
General Integration Accuracy     IntAcc      ... 4.020
Radial Grid Type                 RadialGrid  ... OptM3 with GC (2021)
Angular Grid (max. ang.)         AngularGrid ... 2 (Lebedev-110)
Angular grid pruning method      GridPruning ... 4 (adaptive)
Weight generation scheme         WeightScheme... mBecke (2022)
Basis function cutoff            BFCut       ... 1.0000e-11
Integration weight cutoff        WCut        ... 1.0000e-14
Partially contracted basis set               ... on
Rotationally invariant grid construction     ... off
Angular grids for H and He will be reduced by one unit

Total number of grid points                  ...   124469
Total number of batches                      ...     1021
Average number of points per batch           ...      121
Average number of grid points per atom       ...     1383
UseSFitting                                  ... on

GRIDX 3
-------
General Integration Accuracy     IntAcc      ... 4.338
Radial Grid Type                 RadialGrid  ... OptM3 with GC (2021)
Angular Grid (max. ang.)         AngularGrid ... 3 (Lebedev-194)
Angular grid pruning method      GridPruning ... 4 (adaptive)
Weight generation scheme         WeightScheme... mBecke (2022)
Basis function cutoff            BFCut       ... 1.0000e-11
Integration weight cutoff        WCut        ... 1.0000e-14
Partially contracted basis set               ... on
Rotationally invariant grid construction     ... off
Angular grids for H and He will be reduced by one unit

Total number of grid points                  ...   272949
Total number of batches                      ...     2176
Average number of points per batch           ...      125
Average number of grid points per atom       ...     3033
UseSFitting                                  ... on
Initializing property integral containers    ... done (  0.0 sec)

SHARK setup successfully completed in  12.8 seconds

Maximum memory used throughout the entire STARTUP-calculation: 265.3 MB
-------------------------------------------------------------------------------
                                 ORCA GUESS
                   Start orbitals & Density for SCF / CASSCF
-------------------------------------------------------------------------------

------------
SCF SETTINGS
------------
Hamiltonian:
 Density Functional     Method          .... DFT(GTOs)
 Exchange Functional    Exchange        .... WB88
 Correlation Functional Correlation     .... LYP
 LDA part of GGA corr.  LDAOpt          .... VWN-5
 Gradients option       PostSCFGGA      .... off
 Hybrid DFT is turned on
   Fraction HF Exchange ScalHFX         ....  0.190000
   Scaling of DF-GGA-X  ScalDFX         ....  0.350000
   Scaling of DF-GGA-C  ScalDFC         ....  0.810000
   Scaling of DF-LDA-C  ScalLDAC        ....  1.000000
   Perturbative correction              ....  0.000000
 Long-range corrected/Screened/Range-Separated Hybrid DFT is turned on
   Amount of maximum screened exact exchange              ....  0.460000
   Range separation parameter mu (erf(mu*r12)/r12)        ....  0.330000
 RI-approximation to the Coulomb term is turned on
   Number of AuxJ basis functions       .... 3198
   RIJ-COSX (HFX calculated with COS-X)).... on


General Settings:
 Integral files         IntName         .... QX-TPA
 Hartree-Fock type      HFTyp           .... RHF
 Total Charge           Charge          ....    0
 Multiplicity           Mult            ....    1
 Number of Electrons    NEL             ....  408
 Basis Dimension        Dim             .... 1252
 Nuclear Repulsion      ENuc            ....   7225.5784706642 Eh

Convergence Acceleration:
 AO-DIIS                CNVDIIS         .... on
   Start iteration      DIISMaxIt       ....    12
   Startup error        DIISStart       ....  0.200000
   # of expansion vecs  DIISMaxEq       ....     5
   Bias factor          DIISBfac        ....   1.050
   Max. coefficient     DIISMaxC        ....  10.000
 MO-DIIS                CNVKDIIS        .... off
 Trust-Rad. Augm. Hess. CNVTRAH         .... auto
   Auto Start mean grad. ratio tolernc. ....  1.125000
   Auto Start start iteration           ....    50
   Auto Start num. interpolation iter.  ....    10
   Max. Number of Micro iterations      ....    24
   Max. Number of Macro iterations      .... Maxiter - #DIIS iter
   Number of Davidson start vectors     ....     2
   Converg. threshold    (grad. norm)   ....   1.000e-05
   Grad. Scal. Fac. for Micro threshold ....   0.100
   Minimum threshold for Micro iter.    ....   1.000e-02
   NR start threshold (gradient norm)   ....   1.000e-04
   Initial trust radius                 ....   0.400
   Minimum AH scaling param. (alpha)    ....   1.000
   Maximum AH scaling param. (alpha)    .... 1000.000
   Quad. conv. algorithm                .... NR
   White noise on init. David. guess    .... on
   Maximum white noise                  ....   0.010
   Pseudo random numbers                .... off
   Inactive MOs                         .... canonical
   Orbital update algorithm             .... Taylor
   Preconditioner                       .... Diag
   Full preconditioner red. dimension   ....   250
 SOSCF                  CNVSOSCF        .... on
   Start iteration      SOSCFMaxIt      ....   150
   Startup grad/error   SOSCFStart      ....  0.003300
   Hessian update       SOSCFHessUp     .... L-BFGS
 Level Shifting         CNVShift        .... on
   Level shift para.    LevelShift      ....    0.2500
   Turn off err/grad.   ShiftErr        ....    0.0010
 Zerner damping         CNVZerner       .... off
 Static damping         CNVDamp         .... on
   Fraction old density DampFac         ....    0.7000
   Max. Damping (<1)    DampMax         ....    0.9800
   Min. Damping (>=0)   DampMin         ....    0.0000
   Turn off err/grad.   DampErr         ....    0.1000

SCF Procedure:
 Maximum # iterations   MaxIter         ....   125
 SCF integral mode      SCFMode         .... Direct
   Integral package                     .... SHARK and LIBINT hybrid scheme
 Reset frequency        DirectResetFreq ....    20
 Integral Threshold     Thresh          ....  2.500e-11 Eh
 Primitive CutOff       TCut            ....  2.500e-12 Eh

Convergence Tolerance:
 Convergence Check Mode ConvCheckMode   .... Total+1el-Energy
 Convergence forced     ConvForced      .... 1
 Energy Change          TolE            ....  1.000e-08 Eh
 1-El. energy change                    ....  1.000e-05 Eh
 Orbital Gradient       TolG            ....  1.000e-05
 Orbital Rotation angle TolX            ....  1.000e-05
 DIIS Error             TolErr          ....  5.000e-07

------------------------------
INITIAL GUESS: MODEL POTENTIAL
------------------------------
Loading Hartree-Fock densities                     ... done
Calculating cut-offs                               ... done
Initializing the effective Hamiltonian             ... done
Setting up the integral package (SHARK)            ... done
Starting the Coulomb interaction                   ... done (   4.8 sec)
Making the grid                                    ... done (   1.5 sec)
Mapping shells                                     ... done
Starting the XC term evaluation                    ... done (   1.1 sec)
  promolecular density results
     # of electrons  =    407.994625892
     EX              =   -357.468705405
     EC              =    -13.905507346
     EX+EC           =   -371.374212751
Transforming the Hamiltonian                       ... done (   0.1 sec)
Diagonalizing the Hamiltonian                      ... done (   0.2 sec)
Back transforming the eigenvectors                 ... done (   0.1 sec)
Now organizing SCF variables                       ... done
                      ------------------
                      INITIAL GUESS DONE (   7.8 sec)
                      ------------------
             **** ENERGY FILE WAS UPDATED (QX-TPA.en.tmp) ****
Finished Guess after   8.3 sec
Maximum memory used throughout the entire GUESS-calculation: 160.8 MB

-------------------------------------------------------------------------------------------
                                      ORCA LEAN-SCF
                              memory conserving SCF solver
-------------------------------------------------------------------------------------------

--------------------
CPCM SOLVATION MODEL
--------------------
CPCM parameters:
  Epsilon                                         ...       7.5650
  Refrac                                          ...       1.4050
  Rsolv                                           ...       1.3000
  Surface type                                    ... GAUSSIAN VDW
  Discretization scheme                           ... Constant charge density
    Threshold for H atoms                         ...       5.0000 (charges/Ang^2)
    Threshold for non-H atoms                     ...       5.0000 (charges/Ang^2)
  Epsilon function type                           ...         CPCM
Solvent:                                          ... TETRAHYDROFURAN
Radii:
  Scheme                                          ... Element-dependent radii
  Radius for N  used is    3.5149 Bohr (=   1.8600 Ang.)
  Radius for C  used is    3.8550 Bohr (=   2.0400 Ang.)
  Radius for H  used is    2.4944 Bohr (=   1.3200 Ang.)
  Radius for S  used is    4.0818 Bohr (=   2.1600 Ang.)
  Radius for O  used is    3.4469 Bohr (=   1.8240 Ang.)
Calculating surface                               ...        done! (  0.0s)
Cavity surface points                             ...         8237
Cavity Volume                                     ...    6064.2317
Cavity Surface-area                               ...    2875.7508
Calculating surface distance matrix               ...        done! (  0.3s)
Performing Cholesky decomposition & store         ...        done! (  3.0s)
Overall time for CPCM initialization              ...                 3.3s

----------------------------------------D-I-I-S--------------------------------------------
Iteration    Energy (Eh)           Delta-E    RMSDP     MaxDP     DIISErr   Damp  Time(sec)
-------------------------------------------------------------------------------------------
               ***  Starting incremental Fock matrix formation  ***
    1    -3088.7160200283642553     0.00e+00  7.91e-04  1.03e-01  2.90e-01  0.700 189.6
    2    -3089.1698193793790779    -4.54e-01  6.17e-04  7.79e-02  1.25e-01  0.700  81.0
                               ***Turning on AO-DIIS***
    3    -3089.3857740921657751    -2.16e-01  3.34e-04  3.01e-02  4.11e-02  0.700  79.1
    4    -3089.5147672150951621    -1.29e-01  7.12e-04  6.10e-02  2.77e-02  0.000  74.5
    5    -3089.7924024071371605    -2.78e-01  7.28e-05  5.66e-03  6.83e-03  0.000  80.8
    6    -3089.7937154267210644    -1.31e-03  3.18e-05  2.54e-03  3.64e-03  0.000  67.9
                              *** Initializing SOSCF ***
---------------------------------------S-O-S-C-F--------------------------------------
Iteration    Energy (Eh)           Delta-E    RMSDP     MaxDP     MaxGrad    Time(sec)
--------------------------------------------------------------------------------------
    7    -3089.7940058697704444    -2.90e-04  1.92e-05  1.82e-03  1.55e-03    63.0
               *** Restarting incremental Fock matrix formation ***
    8    -3089.7940741673146476    -6.83e-05  2.21e-05  1.63e-03  9.40e-04   186.8
    9    -3089.7941391202193699    -6.50e-05  2.21e-05  1.90e-03  3.06e-04   118.2
   10    -3089.7941495586192104    -1.04e-05  1.02e-05  6.95e-04  3.75e-04   116.5
   11    -3089.7941608231985811    -1.13e-05  3.58e-06  5.07e-04  8.18e-05   105.5
   12    -3089.7941608463142984    -2.31e-08  2.02e-06  2.29e-04  8.77e-05    86.9
   13    -3089.7941616136695302    -7.67e-07  4.77e-07  8.23e-05  1.66e-05    77.5
   14    -3089.7941616077487197     5.92e-09  2.48e-07  3.28e-05  2.51e-05    49.6
                 **** Energy Check signals convergence ****

               *****************************************************
               *                     SUCCESS                       *
               *           SCF CONVERGED AFTER  14 CYCLES          *
               *****************************************************

Recomputing exchange energy using gridx3       ... done (  338.748 sec)
Old exchange energy                            :   -101.022173230 Eh
New exchange energy                            :   -101.022114430 Eh
Exchange energy change after final integration :      0.000058800 Eh
Total energy after final integration           :  -3089.794102808 Eh
             **** ENERGY FILE WAS UPDATED (QX-TPA.en.tmp) ****

----------------
TOTAL SCF ENERGY
----------------

Total Energy       :      -3089.79410280760430 Eh          -84077.57196 eV

Components:
Nuclear Repulsion  :       7225.57847066416889 Eh          196617.98605 eV
Electronic Energy  :     -10315.33364731104848 Eh         -280694.49878 eV
One Electron Energy:     -18598.30666645848032 Eh         -506085.65329 eV
Two Electron Energy:       8282.97301914743184 Eh          225391.15452 eV
CPCM Dielectric    :         -0.03898496086924 Eh              -1.06083 eV

Virial components:
Potential Energy   :      -6170.33137804383568 Eh         -167903.25283 eV
Kinetic Energy     :       3080.53727523623138 Eh           83825.68087 eV
Virial Ratio       :          2.00300493931555

DFT components:
N(Alpha)           :      204.000103603594 electrons
N(Beta)            :      204.000103603594 electrons
N(Total)           :      408.000207207189 electrons
E(XC)              :     -277.820129450953 Eh       

CPCM Solvation Model Properties:
Surface-charge          :         -0.04467057464505
Corrected charge        :          0.00000000000000
Outlying charge corr.   :          0.00005926714856 Eh               0.00161 eV
Free-energy (cav+disp)  :  This term is not implemented in the current solvation scheme

---------------
SCF CONVERGENCE
---------------

  Last Energy change         ...   -5.9208e-09  Tolerance :   1.0000e-08
  Last MAX-Density change    ...    3.2821e-05  Tolerance :   1.0000e-07
  Last RMS-Density change    ...    2.4761e-07  Tolerance :   5.0000e-09
  Last DIIS Error            ...    1.5548e-03  Tolerance :   5.0000e-07
  Last Orbital Gradient      ...    2.5147e-05  Tolerance :   1.0000e-05
  Last Orbital Rotation      ...    2.2766e-05  Tolerance :   1.0000e-05


----------------
ORBITAL ENERGIES
----------------

  NO   OCC          E(Eh)            E(eV) 
   0   2.0000     -88.961228     -2420.7581 
   1   2.0000     -88.946916     -2420.3686 
   2   2.0000     -19.243495      -523.6421 
   3   2.0000     -19.192896      -522.2653 
   4   2.0000     -14.418145      -392.3377 
   5   2.0000     -14.412445      -392.1826 
   6   2.0000     -14.411716      -392.1627 
   7   2.0000     -14.395437      -391.7197 
   8   2.0000     -10.399403      -282.9822 
   9   2.0000     -10.321238      -280.8552 
  10   2.0000     -10.319652      -280.8120 
  11   2.0000     -10.310155      -280.5536 
  12   2.0000     -10.309891      -280.5464 
  13   2.0000     -10.308783      -280.5163 
  14   2.0000     -10.308564      -280.5103 
  15   2.0000     -10.301209      -280.3102 
  16   2.0000     -10.300176      -280.2820 
  17   2.0000     -10.298098      -280.2255 
  18   2.0000     -10.295008      -280.1414 
  19   2.0000     -10.294241      -280.1205 
  20   2.0000     -10.294119      -280.1172 
  21   2.0000     -10.289681      -279.9964 
  22   2.0000     -10.288832      -279.9733 
  23   2.0000     -10.286594      -279.9125 
  24   2.0000     -10.284782      -279.8632 
  25   2.0000     -10.271157      -279.4924 
  26   2.0000     -10.270433      -279.4727 
  27   2.0000     -10.269596      -279.4499 
  28   2.0000     -10.268915      -279.4314 
  29   2.0000     -10.266376      -279.3623 
  30   2.0000     -10.266243      -279.3587 
  31   2.0000     -10.262875      -279.2670 
  32   2.0000     -10.256885      -279.1040 
  33   2.0000     -10.256239      -279.0865 
  34   2.0000     -10.255725      -279.0725 
  35   2.0000     -10.254810      -279.0476 
  36   2.0000     -10.254695      -279.0444 
  37   2.0000     -10.254651      -279.0433 
  38   2.0000     -10.254624      -279.0425 
  39   2.0000     -10.254170      -279.0302 
  40   2.0000     -10.253520      -279.0125 
  41   2.0000     -10.252906      -278.9957 
  42   2.0000     -10.252780      -278.9923 
  43   2.0000     -10.252242      -278.9777 
  44   2.0000     -10.252058      -278.9727 
  45   2.0000     -10.250340      -278.9259 
  46   2.0000     -10.250335      -278.9258 
  47   2.0000     -10.250291      -278.9246 
  48   2.0000     -10.250239      -278.9232 
  49   2.0000     -10.250030      -278.9175 
  50   2.0000     -10.250000      -278.9167 
  51   2.0000     -10.248741      -278.8824 
  52   2.0000     -10.248509      -278.8761 
  53   2.0000     -10.248441      -278.8743 
  54   2.0000     -10.248356      -278.8719 
  55   2.0000     -10.248241      -278.8688 
  56   2.0000     -10.245739      -278.8007 
  57   2.0000     -10.245603      -278.7970 
  58   2.0000      -8.049060      -219.0261 
  59   2.0000      -8.034997      -218.6434 
  60   2.0000      -6.012967      -163.6212 
  61   2.0000      -6.008802      -163.5078 
  62   2.0000      -6.006326      -163.4404 
  63   2.0000      -5.998988      -163.2408 
  64   2.0000      -5.994807      -163.1270 
  65   2.0000      -5.992103      -163.0534 
  66   2.0000      -1.201623       -32.6978 
  67   2.0000      -1.111874       -30.2556 
  68   2.0000      -1.089638       -29.6505 
  69   2.0000      -1.056189       -28.7404 
  70   2.0000      -1.017859       -27.6973 
  71   2.0000      -1.007974       -27.4284 
  72   2.0000      -0.992201       -26.9992 
  73   2.0000      -0.980901       -26.6917 
  74   2.0000      -0.966422       -26.2977 
  75   2.0000      -0.951899       -25.9025 
  76   2.0000      -0.949212       -25.8294 
  77   2.0000      -0.947387       -25.7797 
  78   2.0000      -0.946358       -25.7517 
  79   2.0000      -0.929114       -25.2825 
  80   2.0000      -0.926229       -25.2040 
  81   2.0000      -0.889973       -24.2174 
  82   2.0000      -0.886916       -24.1342 
  83   2.0000      -0.860994       -23.4288 
  84   2.0000      -0.848013       -23.0756 
  85   2.0000      -0.846799       -23.0426 
  86   2.0000      -0.839672       -22.8486 
  87   2.0000      -0.838002       -22.8032 
  88   2.0000      -0.836515       -22.7627 
  89   2.0000      -0.835520       -22.7357 
  90   2.0000      -0.834963       -22.7205 
  91   2.0000      -0.831449       -22.6249 
  92   2.0000      -0.830779       -22.6066 
  93   2.0000      -0.825769       -22.4703 
  94   2.0000      -0.818212       -22.2647 
  95   2.0000      -0.807188       -21.9647 
  96   2.0000      -0.783381       -21.3169 
  97   2.0000      -0.763748       -20.7826 
  98   2.0000      -0.759544       -20.6683 
  99   2.0000      -0.743911       -20.2428 
 100   2.0000      -0.727005       -19.7828 
 101   2.0000      -0.718842       -19.5607 
 102   2.0000      -0.711353       -19.3569 
 103   2.0000      -0.704810       -19.1789 
 104   2.0000      -0.692680       -18.8488 
 105   2.0000      -0.689571       -18.7642 
 106   2.0000      -0.688169       -18.7260 
 107   2.0000      -0.686299       -18.6751 
 108   2.0000      -0.682832       -18.5808 
 109   2.0000      -0.681257       -18.5379 
 110   2.0000      -0.678945       -18.4750 
 111   2.0000      -0.655353       -17.8331 
 112   2.0000      -0.651526       -17.7289 
 113   2.0000      -0.647861       -17.6292 
 114   2.0000      -0.638903       -17.3854 
 115   2.0000      -0.631698       -17.1894 
 116   2.0000      -0.621467       -16.9110 
 117   2.0000      -0.616383       -16.7726 
 118   2.0000      -0.612441       -16.6654 
 119   2.0000      -0.609156       -16.5760 
 120   2.0000      -0.607603       -16.5337 
 121   2.0000      -0.605933       -16.4883 
 122   2.0000      -0.593793       -16.1579 
 123   2.0000      -0.582096       -15.8396 
 124   2.0000      -0.580381       -15.7930 
 125   2.0000      -0.572190       -15.5701 
 126   2.0000      -0.567999       -15.4561 
 127   2.0000      -0.562611       -15.3094 
 128   2.0000      -0.555919       -15.1273 
 129   2.0000      -0.546966       -14.8837 
 130   2.0000      -0.545331       -14.8392 
 131   2.0000      -0.544218       -14.8089 
 132   2.0000      -0.541325       -14.7302 
 133   2.0000      -0.536822       -14.6077 
 134   2.0000      -0.533826       -14.5261 
 135   2.0000      -0.530778       -14.4432 
 136   2.0000      -0.526971       -14.3396 
 137   2.0000      -0.525010       -14.2862 
 138   2.0000      -0.523316       -14.2402 
 139   2.0000      -0.520489       -14.1632 
 140   2.0000      -0.518833       -14.1182 
 141   2.0000      -0.512386       -13.9427 
 142   2.0000      -0.506559       -13.7842 
 143   2.0000      -0.504198       -13.7199 
 144   2.0000      -0.501937       -13.6584 
 145   2.0000      -0.498355       -13.5609 
 146   2.0000      -0.496221       -13.5029 
 147   2.0000      -0.495691       -13.4884 
 148   2.0000      -0.495263       -13.4768 
 149   2.0000      -0.493730       -13.4351 
 150   2.0000      -0.492007       -13.3882 
 151   2.0000      -0.489600       -13.3227 
 152   2.0000      -0.487021       -13.2525 
 153   2.0000      -0.481901       -13.1132 
 154   2.0000      -0.479338       -13.0435 
 155   2.0000      -0.476673       -12.9709 
 156   2.0000      -0.467381       -12.7181 
 157   2.0000      -0.462258       -12.5787 
 158   2.0000      -0.459721       -12.5096 
 159   2.0000      -0.458993       -12.4898 
 160   2.0000      -0.457573       -12.4512 
 161   2.0000      -0.454013       -12.3543 
 162   2.0000      -0.451426       -12.2839 
 163   2.0000      -0.448266       -12.1979 
 164   2.0000      -0.446786       -12.1577 
 165   2.0000      -0.445433       -12.1209 
 166   2.0000      -0.444181       -12.0868 
 167   2.0000      -0.439592       -11.9619 
 168   2.0000      -0.430954       -11.7269 
 169   2.0000      -0.429668       -11.6919 
 170   2.0000      -0.427158       -11.6235 
 171   2.0000      -0.425389       -11.5754 
 172   2.0000      -0.423839       -11.5333 
 173   2.0000      -0.421620       -11.4729 
 174   2.0000      -0.419707       -11.4208 
 175   2.0000      -0.416608       -11.3365 
 176   2.0000      -0.415070       -11.2946 
 177   2.0000      -0.413547       -11.2532 
 178   2.0000      -0.412560       -11.2263 
 179   2.0000      -0.410818       -11.1789 
 180   2.0000      -0.409539       -11.1441 
 181   2.0000      -0.403462       -10.9787 
 182   2.0000      -0.400878       -10.9085 
 183   2.0000      -0.385768       -10.4973 
 184   2.0000      -0.379241       -10.3197 
 185   2.0000      -0.374306       -10.1854 
 186   2.0000      -0.365557        -9.9473 
 187   2.0000      -0.353777        -9.6267 
 188   2.0000      -0.344143        -9.3646 
 189   2.0000      -0.333127        -9.0648 
 190   2.0000      -0.328774        -8.9464 
 191   2.0000      -0.325130        -8.8472 
 192   2.0000      -0.324331        -8.8255 
 193   2.0000      -0.324214        -8.8223 
 194   2.0000      -0.321215        -8.7407 
 195   2.0000      -0.317902        -8.6506 
 196   2.0000      -0.314720        -8.5640 
 197   2.0000      -0.313930        -8.5425 
 198   2.0000      -0.311958        -8.4888 
 199   2.0000      -0.311666        -8.4809 
 200   2.0000      -0.292498        -7.9593 
 201   2.0000      -0.287760        -7.8303 
 202   2.0000      -0.258279        -7.0281 
 203   2.0000      -0.233051        -6.3417 
 204   0.0000      -0.078739        -2.1426 
 205   0.0000      -0.046093        -1.2543 
 206   0.0000      -0.018969        -0.5162 
 207   0.0000      -0.011709        -0.3186 
 208   0.0000       0.014018         0.3814 
 209   0.0000       0.015769         0.4291 
 210   0.0000       0.021144         0.5753 
 211   0.0000       0.022365         0.6086 
[...]
   201a -> 204a  :     0.033677 (c=  0.18351193)
   202a -> 204a  :     0.036007 (c= -0.18975380)
   202a -> 205a  :     0.017879 (c= -0.13371143)
   203a -> 204a  :     0.018267 (c= -0.13515563)
   203a -> 205a  :     0.014923 (c=  0.12216105)

STATE  5:  E=   0.137847 au      3.751 eV    30253.9 cm**-1 <S**2> =   0.000000 Mult 1
   188a -> 204a  :     0.025546 (c=  0.15983106)
   190a -> 204a  :     0.016292 (c= -0.12763920)
   194a -> 204a  :     0.018184 (c= -0.13484805)
   194a -> 205a  :     0.011941 (c= -0.10927408)
   200a -> 204a  :     0.207234 (c= -0.45522965)
   200a -> 205a  :     0.025758 (c= -0.16049233)
   201a -> 204a  :     0.281180 (c=  0.53026422)
   201a -> 205a  :     0.075306 (c=  0.27441872)
   202a -> 204a  :     0.022472 (c= -0.14990646)
   202a -> 205a  :     0.015242 (c=  0.12345699)
   202a -> 206a  :     0.033823 (c= -0.18391037)
   202a -> 207a  :     0.021585 (c=  0.14691835)
   203a -> 205a  :     0.049226 (c= -0.22186868)
   203a -> 206a  :     0.065413 (c=  0.25576007)

STATE  6:  E=   0.144813 au      3.941 eV    31782.8 cm**-1 <S**2> =   0.000000 Mult 1
   200a -> 204a  :     0.016352 (c=  0.12787537)
   202a -> 204a  :     0.022974 (c=  0.15157073)
   202a -> 206a  :     0.012877 (c= -0.11347479)
   202a -> 208a  :     0.014815 (c=  0.12171605)
   203a -> 204a  :     0.089538 (c=  0.29922876)
   203a -> 205a  :     0.011911 (c= -0.10913786)
   203a -> 206a  :     0.213330 (c=  0.46187641)
   203a -> 207a  :     0.468315 (c=  0.68433546)
   203a -> 208a  :     0.034508 (c=  0.18576310)
   203a -> 209a  :     0.011481 (c=  0.10714816)

STATE  7:  E=   0.152649 au      4.154 eV    33502.5 cm**-1 <S**2> =   0.000000 Mult 1
   189a -> 204a  :     0.010312 (c= -0.10154606)
   192a -> 204a  :     0.011419 (c=  0.10686049)
   195a -> 204a  :     0.010233 (c= -0.10115809)
   198a -> 204a  :     0.012712 (c= -0.11274667)
   200a -> 204a  :     0.189380 (c=  0.43517805)
   201a -> 204a  :     0.221845 (c=  0.47100378)
   201a -> 205a  :     0.019685 (c=  0.14030169)
   202a -> 204a  :     0.071341 (c= -0.26709720)
   202a -> 206a  :     0.125241 (c=  0.35389474)
   203a -> 205a  :     0.067819 (c= -0.26042080)
   203a -> 206a  :     0.106174 (c= -0.32584331)
   203a -> 207a  :     0.029500 (c=  0.17175492)
   203a -> 208a  :     0.016046 (c=  0.12667121)

STATE  8:  E=   0.157791 au      4.294 eV    34631.2 cm**-1 <S**2> =   0.000000 Mult 1
   191a -> 207a  :     0.010037 (c= -0.10018360)
   198a -> 210a  :     0.011162 (c= -0.10565175)
   202a -> 208a  :     0.037654 (c=  0.19404711)
   202a -> 209a  :     0.083627 (c= -0.28918302)
   203a -> 208a  :     0.290464 (c=  0.53894694)
   203a -> 209a  :     0.415173 (c= -0.64433883)
   203a -> 214a  :     0.018936 (c= -0.13760885)

STATE  9:  E=   0.158560 au      4.315 eV    34799.9 cm**-1 <S**2> =   0.000000 Mult 1
   188a -> 204a  :     0.014941 (c=  0.12223223)
   190a -> 204a  :     0.092480 (c=  0.30410516)
   192a -> 204a  :     0.076347 (c=  0.27630978)
   192a -> 205a  :     0.010654 (c= -0.10322037)
   194a -> 204a  :     0.050281 (c= -0.22423371)
   194a -> 205a  :     0.013687 (c=  0.11699182)
   200a -> 204a  :     0.148671 (c=  0.38557814)
   201a -> 205a  :     0.046583 (c= -0.21583013)
   202a -> 205a  :     0.047145 (c= -0.21712799)
   202a -> 206a  :     0.042875 (c= -0.20706330)
   202a -> 207a  :     0.021333 (c=  0.14605900)
   203a -> 205a  :     0.063914 (c= -0.25281244)
   203a -> 206a  :     0.094910 (c=  0.30807431)
   203a -> 207a  :     0.138887 (c= -0.37267562)
   203a -> 209a  :     0.010662 (c=  0.10325651)

STATE 10:  E=   0.163141 au      4.439 eV    35805.2 cm**-1 <S**2> =   0.000000 Mult 1
   190a -> 204a  :     0.220224 (c=  0.46928058)
   190a -> 205a  :     0.011648 (c= -0.10792531)
   192a -> 204a  :     0.022763 (c=  0.15087432)
   194a -> 204a  :     0.028802 (c= -0.16971075)
   194a -> 205a  :     0.020920 (c=  0.14463714)
   197a -> 204a  :     0.036011 (c= -0.18976481)
   199a -> 204a  :     0.047162 (c=  0.21716829)
   200a -> 204a  :     0.180769 (c= -0.42516888)
   200a -> 205a  :     0.031067 (c= -0.17625792)
   202a -> 204a  :     0.015513 (c=  0.12455094)
   202a -> 205a  :     0.050146 (c= -0.22393263)
   202a -> 206a  :     0.047194 (c=  0.21724210)
   203a -> 204a  :     0.016576 (c=  0.12874688)
   203a -> 205a  :     0.026787 (c= -0.16366818)
   203a -> 206a  :     0.082729 (c= -0.28762690)
   203a -> 207a  :     0.014086 (c=  0.11868239)
   203a -> 208a  :     0.013695 (c=  0.11702577)
   203a -> 209a  :     0.013031 (c=  0.11415245)


-----------------------------
TD-DFT/TDA-EXCITATION SPECTRA
-----------------------------

Center of mass = ( -2.4720, -2.3059,  9.5291)
Generating CIS transition densities           ... done

----------------------------------------------------------------------------------------------------
                     ABSORPTION SPECTRUM VIA TRANSITION ELECTRIC DIPOLE MOMENTS    
----------------------------------------------------------------------------------------------------
     Transition      Energy     Energy  Wavelength fosc(D2)      D2        DX        DY        DZ   
                      (eV)      (cm-1)    (nm)                 (au**2)    (au)      (au)      (au)  
----------------------------------------------------------------------------------------------------
  0-1A  ->  1-1A    2.592860   20912.8   478.2   1.943374341  30.59280   1.43634  -5.32575   0.40756
  0-1A  ->  2-1A    3.358927   27091.6   369.1   0.126932943   1.54247  -0.86207   0.88693   0.11252
  0-1A  ->  3-1A    3.634961   29317.9   341.1   0.134045205   1.50520   0.74060  -0.97717   0.04295
  0-1A  ->  4-1A    3.742200   30182.9   331.3   0.034793752   0.37950  -0.56508  -0.24043  -0.04879
  0-1A  ->  5-1A    3.751007   30253.9   330.5   0.182712655   1.98821  -1.25766  -0.54970   0.32299
  0-1A  ->  6-1A    3.940561   31782.8   314.6   0.763962038   7.91326  -0.99995   2.61129  -0.30749
  0-1A  ->  7-1A    4.153784   33502.5   298.5   0.155539110   1.52840  -1.22171   0.11934   0.14689
  0-1A  ->  8-1A    4.293716   34631.2   288.8   0.047211365   0.44880   0.41759   0.30807  -0.42369
  0-1A  ->  9-1A    4.314639   34799.9   287.4   0.094727916   0.89614   0.79741   0.50412  -0.07835
  0-1A  -> 10-1A    4.439281   35805.2   279.3   0.215377651   1.98030  -1.33837  -0.22048   0.37476

----------------------------------------------------------------------------------------------------
                     ABSORPTION SPECTRUM VIA TRANSITION VELOCITY DIPOLE MOMENTS    
----------------------------------------------------------------------------------------------------
     Transition      Energy     Energy  Wavelength fosc(P2)      P2        PX        PY        PZ   
                      (eV)      (cm-1)    (nm)                 (au**2)    (au)      (au)      (au)  
----------------------------------------------------------------------------------------------------
  0-1A  ->  1-1A    2.592860   20912.8   478.2   1.031234819   0.14739  -0.12936   0.36020  -0.03025
  0-1A  ->  2-1A    3.358927   27091.6   369.1   0.073057841   0.01353   0.10535  -0.04505  -0.01999
  0-1A  ->  3-1A    3.634961   29317.9   341.1   0.102517793   0.02054  -0.07749   0.11974  -0.01414
  0-1A  ->  4-1A    3.742200   30182.9   331.3   0.012472636   0.00257   0.03283   0.01400  -0.03604
  0-1A  ->  5-1A    3.751007   30253.9   330.5   0.027583068   0.00570   0.06552   0.03710  -0.00581
  0-1A  ->  6-1A    3.940561   31782.8   314.6   0.583230250   0.12669   0.10571  -0.33824   0.03331
  0-1A  ->  7-1A    4.153784   33502.5   298.5   0.051685324   0.01183   0.10738  -0.01290  -0.01175
  0-1A  ->  8-1A    4.293716   34631.2   288.8   0.004455797   0.00105   0.02316   0.00695   0.02168
  0-1A  ->  9-1A    4.314639   34799.9   287.4   0.050754546   0.01207  -0.09755  -0.04771   0.01670
  0-1A  -> 10-1A    4.439281   35805.2   279.3   0.013916658   0.00341   0.05801   0.00099  -0.00630

------------------------------------------------------------------------------------------
                     CD SPECTRUM VIA TRANSITION ELECTRIC DIPOLE MOMENTS    
------------------------------------------------------------------------------------------
     Transition      Energy     Energy  Wavelength    R        MX        MY        MZ   
                      (eV)      (cm-1)    (nm)   (1e40*cgs)   (au)      (au)      (au)  
------------------------------------------------------------------------------------------
  0-1A  ->  1-1A    2.592860   20912.8   478.2  -50.44533  -0.10714  -0.14509  -1.25587
  0-1A  ->  2-1A    3.358927   27091.6   369.1   72.98763   0.07168  -0.06885  -0.28404
  0-1A  ->  3-1A    3.634961   29317.9   341.1  -17.94092  -0.01865  -0.06103  -0.18081
  0-1A  ->  4-1A    3.742200   30182.9   331.3  -26.07277  -0.07090  -0.03118  -0.15867
  0-1A  ->  5-1A    3.751007   30253.9   330.5   26.50337   0.01099  -0.00327  -0.13682
  0-1A  ->  6-1A    3.940561   31782.8   314.6  -79.16658   0.01458   0.20631   1.15850
  0-1A  ->  7-1A    4.153784   33502.5   298.5   19.45273  -0.01263  -0.00081  -0.38525
  0-1A  ->  8-1A    4.293716   34631.2   288.8  212.98248  -0.52584  -0.24012   0.37338
  0-1A  ->  9-1A    4.314639   34799.9   287.4  -49.49844   0.10545   0.05874   0.11116
  0-1A  -> 10-1A    4.439281   35805.2   279.3   52.12796   0.03794   0.04004  -0.13598

------------------------------------------------------------------------------------------
                     CD SPECTRUM VIA TRANSITION VELOCITY DIPOLE MOMENTS    
------------------------------------------------------------------------------------------
     Transition      Energy     Energy  Wavelength    R        MX        MY        MZ   
                      (eV)      (cm-1)    (nm)   (1e40*cgs)   (au)      (au)      (au)  
------------------------------------------------------------------------------------------
  0-1A  ->  1-1A    2.592860   20912.8   478.2   -2.02706  -0.10714  -0.14509  -1.25587
  0-1A  ->  2-1A    3.358927   27091.6   369.1   62.37153   0.07168  -0.06885  -0.28404
  0-1A  ->  3-1A    3.634961   29317.9   341.1  -11.66200  -0.01865  -0.06103  -0.18081
  0-1A  ->  4-1A    3.742200   30182.9   331.3   10.12936  -0.07090  -0.03118  -0.15867
  0-1A  ->  5-1A    3.751007   30253.9   330.5    4.76590   0.01099  -0.00327  -0.13682
  0-1A  ->  6-1A    3.940561   31782.8   314.6  -96.52488   0.01458   0.20631   1.15850
  0-1A  ->  7-1A    4.153784   33502.5   298.5    9.82092  -0.01263  -0.00081  -0.38525
  0-1A  ->  8-1A    4.293716   34631.2   288.8  -17.18961  -0.52584  -0.24012   0.37338
  0-1A  ->  9-1A    4.314639   34799.9   287.4  -33.40071   0.10545   0.05874   0.11116
  0-1A  -> 10-1A    4.439281   35805.2   279.3    8.94957   0.03794   0.04004  -0.13598

Total run time:     3888.697 sec

           *** ORCA-CIS/TD-DFT FINISHED WITHOUT ERROR ***
-----------------------
CIS/TD-DFT TOTAL ENERGY
-----------------------

    E(SCF)  =  -3089.794102808 Eh
    DE(CIS) =      0.095285868 Eh (Root  1)
    ----------------------------- ---------
    E(tot)  =  -3089.698816940 Eh


Maximum memory used throughout the entire CIS-calculation: 740.7 MB
=> NOW LEAVING ORCA_CIS

-------------------------   --------------------
FINAL SINGLE POINT ENERGY     -3089.698816940090
-------------------------   --------------------


------------------------------------------------------------------------------
                              ORCA PROPERTY CALCULATIONS
------------------------------------------------------------------------------

GBWName                                 ... QX-TPA.gbw
Number of atoms                         ...     90
Number of basis functions               ...   1252
Max core memory                         ...   1024 MB

Electric properties:
Dipole moment                           ... YES
Quadrupole moment                       ...  NO
Static polarizability (Dipole/Dipole)   ...  NO
Static polarizability (Dipole/Quad.)    ...  NO
Static polarizability (Quad./Quad.)     ...  NO
Static polarizability (Velocity)        ...  NO

Atomic electric properties:
Dipole moment                           ...  NO
Quadrupole moment                       ...  NO
Static polarizability                   ...  NO

Choice of electric origin               ... Center of mass
Position of electric origin             ...    -2.472035    -2.305878     9.529123

General magnetic properties:
Magnetizability                         ...  NO

EPR properties:
g-Tensor (aka g-matrix)                 ...  NO
Zero-Field splitting spin-orbit         ...  NO
Zero-field splitting spin-spin          ...  NO
Hyperfine couplings                     ...  NO (   0 nuclei)
Quadrupole couplings                    ...  NO (   0 nuclei)
Contact density                         ...  NO (   0 nuclei)

NMR properties:
Chemical shifts                         ...  NO (   0 nuclei)
Spin-rotation constants                 ...  NO (   0 nuclei)
Spin-spin couplings                     ...  NO (   0 nuclei,    0 pairs)

Choice of magnetic origin               ... GIAO
Position of magnetic origin             ...     0.000000     0.000000     0.000000

Properties with geometric perturbations:
SCF Hessian                             ...  NO
IR spectrum                             ...  NO
VCD spectrum                            ...  NO
X-ray spectroscopy properties:
SCF XES/XAS/RIXS spectra                ...  NO


-------------
DIPOLE MOMENT
-------------

Method             : SCF
Type of density    : Electron Density
Multiplicity       :   1
Irrep              :   0
Energy             : -3089.7941028076043040 Eh
Relativity type    : 
Basis              : AO
                                X                 Y                 Z
Electronic contribution:    -29.050487549      51.860637215      -2.745596249
Nuclear contribution   :     32.147188012     -55.391438042       2.281263897
                        -----------------------------------------
Total Dipole Moment    :      3.096700463      -3.530800827      -0.464332352
                        -----------------------------------------
Magnitude (a.u.)       :      4.719291554
Magnitude (Debye)      :     11.995485834



--------------------
Rotational spectrum 
--------------------
 
Rotational constants in cm-1:             0.003099             0.000449             0.000415 
Rotational constants in MHz :            92.913465            13.466136            12.432624 

Dipole components along the rotational axes: 
x,y,z [a.u.] :     4.209978     2.050125     0.587186 
x,y,z [Debye]:    10.700913     5.211003     1.492508 

 

Dipole moment calculation done in   0.0 sec 

Maximum memory used throughout the entire PROP-calculation: 154.7 MB

--------------------------------
SUGGESTED CITATIONS FOR THIS RUN
--------------------------------

Below you find a list of papers that are relevant to this ORCA run
We neither can nor want to force you to cite these papers, but we appreciate if you do
You receive ORCA, which is the product of decades of hard work by many enthusiastic individuals, for free
The only thing we kindly ask in return is that you cite our papers,
We deeply appreciate it, if you show your appreciation for ORCA by not just citing the generic ORCA reference.

Please note that relegating all ORCA citations to the supporting information does *not* help us.
SI sections are not indexed - citations you put there will not count into any citation statistics
But we need these citations in order to attract the funding resources that allow us to do what we are doing

Therefore, if you are a happy ORCA user, please consider citing a few of the papers listed below in the main body of your paper

In addition to the list printed below, the program has created the file QX-TPA.bibtex that contains the list in bibtex format
You can import this file easily into all common literature databanks and citation aid programs


List of essential papers. We consider these as the minimum necessary citations

  1. Neese,F.
     Software update: the ORCA program system, version 5.0
     WIRES Comput. Molec. Sci., 2022 12(1)e1606
     doi.org/10.1002/wcms.1606

List of papers to cite with high priority. The work reported in these papers was absolutely
necessary for this run to complete.
Our perspective: the developers of density functionals and basis sets usually get cited in chemistry papers
Good! But without the algorithms to do something with them, the functionals or basis sets would not do anything.
Hence, in our opinion, the algorithm design and method developments papers are equally worthy of getting cited

  1. Neese,F.; Olbrich,G.
     Efficient use of the resolution of the identity approximation in time-dependent density functional calculations with hybrid density functionals
     Chem. Phys. Lett., 2002 362 170-178
     doi.org/10.1016/s0009-2614(02)01053-9
  2. Neese,F.
     An improvement of the resolution of the identity approximation for the formation of the Coulomb matrix
     J. Comp. Chem., 2003 24(14)1740-1747
     doi.org/10.1002/jcc.10318
  3. Neese,F.; Wennmohs,F.; Hansen,A.; Becker,U.
     Efficient, approximate and parallel Hartree-Fock and hybrid DFT calculations. A 'chain-of-spheres' algorithm for the Hartree-Fock exchange
     Chem. Phys., 2009 356(1-3)98-109
     doi.org/10.1016/j.chemphys.2008.10.036
  4. Garcia-Rates,M.; Neese,F.
     Effect of the Solute Cavity on the Solvation Energy and its Derivatives within the Framework of the Gaussian Charge Scheme
     J. Comput. Chem., 2020 41 922-939
     doi.org/10.1002/jcc.26139
  5. Helmich-Paris,B.; de Souza,B.; Neese,F.; Izsák,R.
     An improved chain of spheres for exchange algorithm
     J. Chem. Phys., 2021 155 104109
     doi.org/doi: 10.1063/5.0058766.
  6. Neese,F.
     The SHARK Integral Generation and Digestion System
     J. Comp. Chem., 2022  1-16
     doi.org/10.1002/jcc.26942

List of suggested additional citations. These are papers that are important in the 'surrounding' of 
of this run, or papers that preceded the highly important papers. If you like your results we are grateful for a citation.

  1. Izsak,R.; Neese,F.
     An overlap fitted chain of spheres exchange method
     J. Chem. Phys., 2011 135 144105
     doi.org/10.1063/1.3646921
  2. Izsak,R.; Hansen,A.; Neese,F.
     The resolution of identity and chain of spheres approximations for the LPNO-CCSD singles Fock term
     Molec. Phys., 2012 110 2413-2417
     doi.org/10.1080/00268976.2012.687466
  3. Neese,F.
     The ORCA program system
     WIRES Comput. Molec. Sci., 2012 2(1)73-78
     doi.org/10.1002/wcms.81
  4. Izsak,R.; Neese,F.; Klopper,W.
     Robust fitting techniques in the chain of spheres approximation to the Fock exchange: The role of the complementary space
     J. Chem. Phys., 2013 139 
     doi.org/10.1063/1.4819264
  5. Neese,F.
     Software update: the ORCA program system, version 4.0
     WIRES Comput. Molec. Sci., 2018 8(1)1-6
     doi.org/10.1002/wcms.1327
  6. Neese,F.; Wennmohs,F.; Becker,U.; Riplinger,C.
     The ORCA quantum chemistry program package
     J. Chem. Phys., 2020 152 Art. No. L224108
     doi.org/10.1063/5.0004608

List of optional additional citations

  1. Neese,F.
     Approximate second-order SCF convergence for spin unrestricted wavefunctions
     Chem. Phys. Lett., 2000 325(1-3)93-98
     doi.org/10.1016/s0009-2614(00)00662-x

Timings for individual modules:

Sum of individual times          ...     5630.583 sec (=  93.843 min)
Startup calculation              ...       12.814 sec (=   0.214 min)   0.2 %
SCF iterations                   ...     1728.628 sec (=  28.810 min)  30.7 %
Property integrals               ...        0.295 sec (=   0.005 min)   0.0 %
Property calculations            ...        0.117 sec (=   0.002 min)   0.0 %
CIS module                       ...     3888.730 sec (=  64.812 min)  69.1 %
                             ****ORCA TERMINATED NORMALLY****
TOTAL RUN TIME: 0 days 1 hours 33 minutes 50 seconds 685 msec
