
                                 *****************
                                 * O   R   C   A *
                                 *****************

                                            #,                                       
                                            ###                                      
                                            ####                                     
                                            #####                                    
                                            ######                                   
                                           ########,                                 
                                     ,,################,,,,,                         
                               ,,#################################,,                 
                          ,,##########################################,,             
                       ,#########################################, ''#####,          
                    ,#############################################,,   '####,        
                  ,##################################################,,,,####,       
                ,###########''''           ''''###############################       
              ,#####''   ,,,,##########,,,,          '''####'''          '####       
            ,##' ,,,,###########################,,,                        '##       
           ' ,,###''''                  '''############,,,                           
         ,,##''                                '''############,,,,        ,,,,,,###''
      ,#''                                            '''#######################'''  
     '                                                          ''''####''''         
             ,#######,   #######,   ,#######,      ##                                
            ,#'     '#,  ##    ##  ,#'     '#,    #''#        ,####,   ,####,        
            ##       ##  ##   ,#'  ##            #'  '#       #'       #'  '#        
            ##       ##  #######   ##           ,######,      #####,   #    #        
            '#,     ,#'  ##    ##  '#,     ,#' ,#      #,     #,   #   #,  ,#        
             '#######'   ##     ##  '#######'  #'      '#     '####' # '####'        



                #########################################################
                #                        -***-                          #
                #          Department of theory and spectroscopy        #
                #                                                       #
                #                      Frank Neese                      #
                #                                                       #
                #     Directorship, Architecture, Infrastructure        #
                #                    SHARK, DRIVERS                     #
                #        Core code/Algorithms in most modules           #
                #                                                       #
                #        Max Planck Institute fuer Kohlenforschung      #
                #                Kaiser Wilhelm Platz 1                 #
                #                 D-45470 Muelheim/Ruhr                 #
                #                      Germany                          #
                #                                                       #
                #                  All rights reserved                  #
                #                        -***-                          #
                #########################################################


                         Program Version 6.0.1  -  RELEASE   -


 With contributions from (in alphabetic order):
[Max-Planck-Institut fuer Kohlenforschung]                               
  Daniel Aravena         : Magnetic Suceptibility                        
  Michael Atanasov       : Ab Initio Ligand Field Theory (pilot matlab implementation)
  Alexander A. Auer      : GIAO ZORA, VPT2 properties, NMR spectrum      
  Ute Becker             : All parallelization in ORCA, NUMFREQ, NUMCALC 
  Giovanni Bistoni       : ED, misc. LED, open-shell LED, HFLD           
  Martin Brehm           : Molecular dynamics                            
  Dmytro Bykov           : pre 5.0 version of the SCF Hessian            
  Marcos Casanova-Páez   : Triplet and SCS-CIS(D). UHF-(DLPNO)-IP/EA/STEOM-CCSD. UHF-CVS-IP/STEOM-CCSD   
  Vijay G. Chilkuri      : MRCI spin determinant printing, contributions to CSF-ICE 
  Pauline Colinet        : FMM embedding                                 
  Dipayan Datta          : RHF DLPNO-CCSD density                        
  Achintya Kumar Dutta   : EOM-CC, STEOM-CC                              
  Nicolas Foglia         : Exact transition moments, OPA infrastructure, MCD improvements    
  Dmitry Ganyushin       : Spin-Orbit,Spin-Spin,Magnetic field MRCI      
  Miquel Garcia-Rates    : C-PCM and meta-GGA Hessian, CCSD/C-PCM, Gaussian charge scheme 
  Tiago L. C. Gouveia    : GS-ROHF, GS-ROCIS                             
  Yang Guo               : DLPNO-NEVPT2, F12-NEVPT2, CIM, IAO-localization        
  Andreas Hansen         : Spin unrestricted coupled pair/coupled cluster methods 
  Ingolf Harden          : AUTO-CI MPn and infrastructure                
  Benjamin Helmich-Paris : MC-RPA, TRAH-(SCF,CASSCF), AVAS, COSX integrals, SCF dyn. polar. 
  Lee Huntington         : MR-EOM, pCC                                   
  Robert Izsak           : Overlap fitted RIJCOSX, COSX-SCS-MP3, EOM     
  Riya Kayal             : Wick's Theorem for AUTO-CI, AUTO-CI UHF-CCSDT 
  Emily Kempfer          : AUTO-CI, RHF CISDT and CCSDT                  
  Christian Kollmar      : KDIIS, OOCD, Brueckner-CCSD(T), CCSD density, CASPT2, CASPT2-K, improved NEVPT2 
  Axel Koslowski         : Symmetry handling                             
  Simone Kossmann        : meta-GGA functionals, TD-DFT gradient, OOMP2, (MP2 Hessian; deprecated post 5.0) 
  Lucas Lang             : DCDCAS                                        
  Marvin Lechner         : AUTO-CI (C++ implementation), FIC-MRCC        
  Spencer Leger          : CASSCF response                               
  Dagmar Lenk            : GEPOL surface, SMD, ORCA-2-JSON               
  Dimitrios Liakos       : Extrapolation schemes; Compound Job, initial MDCI parallelization 
  Dimitrios Manganas     : Further ROCIS development; embedding schemes. LFT, Crystal Embedding 
  Dimitrios Pantazis     : SARC Basis sets                               
  Anastasios Papadopoulos: AUTO-CI, single reference methods and gradients 
  Taras Petrenko         : pre 6.0 DFT Hessian and TD-DFT gradient, (ASA, deprecated), ECA, 1-Electron XAS/XES, NRVS 
  Peter Pinski           : DLPNO-MP2, DLPNO-MP2 Gradient                 
  Christoph Reimann      : Effective Core Potentials                     
  Marius Retegan         : Local ZFS, SOC                                
  Christoph Riplinger    : Optimizer, TS searches, QM/MM, DLPNO-CCSD(T), (RO)-DLPNO pert. Triples 
  Michael Roemelt        : Original ROCIS implementation                 
  Masaaki Saitow         : Open-shell DLPNO-CCSD energy and density      
  Barbara Sandhoefer     : DKH picture change effects                    
  Kantharuban Sivalingam : CASSCF convergence/infrastructure, NEVPT2 and variants, FIC-MRCI 
  Bernardo de Souza      : ESD, SOC TD-DFT                               
  Georgi L. Stoychev     : AutoAux, RI-MP2 NMR, DLPNO-MP2 response, X2C  
  Van Anh Tran           : RI-MP2 g-tensors                              
  Willem Van den Heuvel  : Paramagnetic NMR                              
  Zikuan Wang            : NOTCH, Electric field optimization            
  Frank Wennmohs         : Technical directorship and infrastructure     
  Hang Xu                : AUTO-CI-Response properties                   
                                                                         
[FACCTs GmbH]                                                            
  Markus Bursch, Miquel Garcia-Rates, Christoph Riplinger, Bernardo de Souza, Georgi L. Stoychev 
                                                                 
  APM, Basis sets (HGBS, AHGBS, def-TZVP (Ac-Lr), def2-XVPD (La-Lu)), CI-OPT, improved COSX, DLPNO-Multilevel,           
  DOCKER, DRACO, updates on ESD, GOAT, IRC, LR-CPCM, MBIS, meta-GGA TD-DFT gradient, ML-optimized integration grids, 
  MM, NACMEs, nearIR, NEB, NEB-TS, NL-DFT gradient (VV10), 2- and 3-layer-ONIOM, interface openCOSMO-RS, QMMM,   
  Crystal-QMMM, SF, symmetry and pop. for TD-DFT, r2SCAN hybrids, SOLVATOR                                   
                                                                         
[Other institutions]                                                     
  V. Asgeirsson          : NEB                                           
  Christoph Bannwarth    : sTDA-DFT, sTD-DFT, PBEh-3c, B97-3c, D3        
  Sebastian Ehlert       : rSCAN, r2SCAN, r2SCAN-3c, D4, dhf basis sets  
  Marvin Friede          : D4 for Fr, Ra, Ac-Lr                          
  Lars Goerigk           : TD-DFT with DH, B97 family of functionals     
  Stefan Grimme          : VdW corrections, initial TS optimization, DFT functionals, gCP, sTDA/sTD-DF 
  Waldemar Hujo          : DFT-NL                                        
  H. Jonsson             : NEB                                           
  Holger Kruse           : gCP                                           
  Marcel Mueller         : wB97X-3c, vDZP basis set                      
  Hagen Neugebauer       : wr2SCAN                                       
  Tobias Risthaus        : range-separated hybrid DFT                    
  Lukas Wittmann         : regularized MP2, r2SCAN double-hybrids, wr2SCAN        
                                                                         
We gratefully acknowledge several colleagues who have allowed us to      
interface, adapt or use parts of their codes:                            
  Ed Valeev, F. Pavosevic, A. Kumar             : LibInt (2-el integral package), F12 methods 
  Garnet Chan, S. Sharma, J. Yang, R. Olivares  : DMRG                   
  Ulf Ekstrom                                   : XCFun DFT Library      
  Mihaly Kallay                                 : mrcc  (arbitrary order and MRCC methods)
  Frank Weinhold                                : gennbo (NPA and NBO analysis)           
  Simon Mueller                                 : openCOSMO-RS                            
  Christopher J. Cramer and Donald G. Truhlar   : smd solvation model                     
  S Lehtola, MJT Oliveira, MAL Marques          : LibXC Library                           
  Liviu Ungur et al                             : ANISO software                          


 Your calculation uses the libint2 library for the computation of 2-el integrals
 For citations please refer to: http://libint.valeyev.net

 Your ORCA version has been built with support for libXC version: 6.2.2
 For citations please refer to: https://libxc.gitlab.io

 This ORCA versions uses:
   CBLAS   interface :  Fast vector & matrix operations
   LAPACKE interface :  Fast linear algebra routines
   SCALAPACK package :  Parallel linear algebra routines
   Shared memory     :  Shared parallel matrices
   BLAS/LAPACK       :  OpenBLAS 0.3.27  USE64BITINT DYNAMIC_ARCH NO_AFFINITY Cooperlake SINGLE_THREADED
        Core in use  :  Cooperlake
   Copyright (c) 2011-2014, The OpenBLAS Project


XCFun DFT library Copyright 2009-2010 Ulf Ekstrom and contributors.
See http://admol.org/xcfun for more information.
This is free software; see the source code for copying conditions.
There is ABSOLUTELY NO WARRANTY; not even for MERCHANTABILITY or FITNESS FOR A PARTICULAR PURPOSE.
For details see the documentation.
Scientific users of this library should cite U. Ekstrom, L. Visscher, R. Bast, A. J. Thorvaldsen and K. Ruud;
J.Chem.Theor.Comp. 2010, DOI: 10.1021/ct100117s
XCFun Version 0.99 

Warning: RI is on but no J-basis has been assigned. Assigning Def2/J (nothing to worry about!)
================================================================================

----- Orbital basis set information -----
Your calculation utilizes the basis: 6-311G(d,p)
   H, Li - Ne  : R. Krishnan, J. S. Binkley, R. Seeger and J. A. Pople, J. Chem. Phys. 72, 650 (1980).
   Na - Ar     : A. D. McLean and G. S. Chandler J. Chem. Phys. 72, 5639, (1980).
   K  - Ca     : J.-P. Blaudeau, M. P. McGrath, L. A. Curtiss and L. Radom, J. Chem. Phys. 107, 5016 (1997).
   Ga - Kr     : L. A. Curtiss, M. P. McGrath, J.-P. Blandeau, N. E. Davis, R. C. Binning and L. Radom, J. Chem. Phys. 103, 6104 (1995).
   Pol./Diff.
   H, Li - Cl  : T. Clark, J. Chandrasekhar and P. v. R. Schleyer, J. Comp. Chem. 4, 294 (1983).
   H - Ne      : M. J. Frisch, J. A. Pople and J. S. Binkley, J. Chem. Phys. 80, 3265 (1984).

----- AuxJ basis set information -----
Your calculation utilizes the auxiliary basis: def2/J
   F. Weigend, Phys. Chem. Chem. Phys. 8, 1057 (2006).

================================================================================
                                        WARNINGS
                       Please study these warnings very carefully!
================================================================================

INFO   : Checking CIS options ...

WARNING: CIS/ROCIS methods need fully converged wavefunctions
  ===> : Setting SCFConvForced true
         You can overwrite this default with %scf ConvForced false 


================================================================================
                                       INPUT FILE
================================================================================
NAME = QX-DMA.inp
|  1> ! wB97X 6-311G(d,p) TightSCF CPCM(THF)
|  2> 
|  3> %tddft
|  4>   nroots 10              
|  5> end
|  6> 
|  7> * xyz 0 1
|  8>    N       -1.90799        2.40480        4.72204
|  9>    N       -1.34517       -0.28641        4.90561
| 10>    C       -2.92291        1.51690        4.80893
| 11>    C       -2.63140        0.11985        4.85341
| 12>    C       -0.65455        1.99376        4.71807
| 13>    C       -0.35979        0.59043        4.88065
| 14>    C       -4.27237        1.99242        4.81461
| 15>    C       -3.68201       -0.85869        4.87842
| 16>    C       -5.26518        1.01407        4.84736
| 17>    C       -4.98268       -0.35188        4.88459
| 18>    H       -6.30629        1.31013        4.83224
| 19>    H       -5.81976       -1.03622        4.93053
| 20>    C        0.37801        3.04531        4.50781
| 21>    C        0.26327        4.26956        5.18024
| 22>    C        1.42994        2.86651        3.59979
| 23>    C        1.19229        5.28312        4.96611
| 24>    H       -0.55822        4.41590        5.87076
| 25>    C        2.34700        3.88844        3.37402
| 26>    H        1.52484        1.93263        3.05904
| 27>    C        2.23618        5.09602        4.06129
| 28>    H        1.09835        6.22079        5.50265
| 29>    H        3.14887        3.74087        2.65925
| 30>    H        2.95693        5.88788        3.88983
| 31>    C        1.01212        0.04003        5.05708
| 32>    C        1.93655        0.63967        5.92282
| 33>    C        1.37075       -1.14336        4.39730
| 34>    C        3.19189        0.07168        6.11761
| 35>    H        1.67069        1.54455        6.45570
| 36>    C        2.63277       -1.69989        4.58099
| 37>    H        0.65167       -1.62080        3.74331
| 38>    C        3.54714       -1.09442        5.44178
| 39>    H        3.89245        0.54106        6.79922
| 40>    H        2.89984       -2.60998        4.05532
| 41>    H        4.52911       -1.53066        5.58841
| 42>    C       -4.62761        3.40731        4.78084
| 43>    C       -5.89716        3.93400        5.01180
| 44>    S       -3.51851        4.69046        4.38106
| 45>    C       -5.99079        5.32032        4.85630
| 46>    H       -6.74095        3.32449        5.30380
| 47>    C       -4.78312        5.90915        4.49935
| 48>    H       -6.90480        5.87616        5.00659
| 49>    C       -3.44843       -2.29581        4.89383
| 50>    C       -4.40160       -3.27814        4.68503
| 51>    S       -1.89683       -3.05407        5.23279
| 52>    C       -3.92161       -4.59481        4.81639
| 53>    H       -5.43111       -3.05681        4.43725
| 54>    C       -2.57940       -4.66217        5.13162
| 55>    H       -4.55010       -5.46892        4.70717
| 56>    C       -1.75539       -5.85180        5.33515
| 57>    C       -2.10754       -7.08459        4.75972
| 58>    C       -1.34864       -8.22707        4.95006
| 59>    H       -2.98801       -7.14783        4.13013
| 60>    C       -0.16706       -8.20114        5.72677
| 61>    H       -1.67285       -9.14495        4.47940
| 62>    N        0.61190       -9.33077        5.89629
| 63>    C       -0.58828       -5.83092        6.11661
| 64>    H       -0.28796       -4.91004        6.60473
| 65>    C        0.18482       -6.96376        6.31263
| 66>    H        1.06332       -6.88506        6.93801
| 67>    C       -5.19286        8.39622        4.26125
| 68>    C       -6.58540        8.38303        4.55703
| 69>    N       -7.71395        8.33049        4.80359
| 70>    C       -4.62373        9.73037        3.96292
| 71>    O       -5.25238       10.76035        3.95560
| 72>    O       -3.29151        9.68913        3.69029
| 73>    H       -3.03267       10.60359        3.50833
| 74>    C       -4.42138        7.26531        4.24819
| 75>    H       -3.37801        7.43528        4.00290
| 76>    C        0.12351      -10.62122        5.43768
| 77>    H       -0.80235      -10.92860        5.94504
| 78>    H       -0.06728      -10.61196        4.35986
| 79>    H        0.88379      -11.37747        5.62897
| 80>    C        1.72866       -9.30557        6.82685
| 81>    H        2.45257       -8.53144        6.55340
| 82>    H        1.41274       -9.12553        7.86469
| 83>    H        2.24403      -10.26447        6.78916
| 84> *
| 85> 
| 86> 
| 87>                          ****END OF INPUT****
================================================================================

                       ****************************
                       * Single Point Calculation *
                       ****************************

---------------------------------
CARTESIAN COORDINATES (ANGSTROEM)
---------------------------------
  N     -1.907990    2.404800    4.722040
  N     -1.345170   -0.286410    4.905610
  C     -2.922910    1.516900    4.808930
  C     -2.631400    0.119850    4.853410
  C     -0.654550    1.993760    4.718070
  C     -0.359790    0.590430    4.880650
  C     -4.272370    1.992420    4.814610
  C     -3.682010   -0.858690    4.878420
  C     -5.265180    1.014070    4.847360
  C     -4.982680   -0.351880    4.884590
  H     -6.306290    1.310130    4.832240
  H     -5.819760   -1.036220    4.930530
  C      0.378010    3.045310    4.507810
  C      0.263270    4.269560    5.180240
  C      1.429940    2.866510    3.599790
  C      1.192290    5.283120    4.966110
  H     -0.558220    4.415900    5.870760
  C      2.347000    3.888440    3.374020
  H      1.524840    1.932630    3.059040
  C      2.236180    5.096020    4.061290
  H      1.098350    6.220790    5.502650
  H      3.148870    3.740870    2.659250
  H      2.956930    5.887880    3.889830
  C      1.012120    0.040030    5.057080
  C      1.936550    0.639670    5.922820
  C      1.370750   -1.143360    4.397300
  C      3.191890    0.071680    6.117610
  H      1.670690    1.544550    6.455700
  C      2.632770   -1.699890    4.580990
  H      0.651670   -1.620800    3.743310
  C      3.547140   -1.094420    5.441780
  H      3.892450    0.541060    6.799220
  H      2.899840   -2.609980    4.055320
  H      4.529110   -1.530660    5.588410
  C     -4.627610    3.407310    4.780840
  C     -5.897160    3.934000    5.011800
  S     -3.518510    4.690460    4.381060
  C     -5.990790    5.320320    4.856300
  H     -6.740950    3.324490    5.303800
  C     -4.783120    5.909150    4.499350
  H     -6.904800    5.876160    5.006590
  C     -3.448430   -2.295810    4.893830
  C     -4.401600   -3.278140    4.685030
  S     -1.896830   -3.054070    5.232790
  C     -3.921610   -4.594810    4.816390
  H     -5.431110   -3.056810    4.437250
  C     -2.579400   -4.662170    5.131620
  H     -4.550100   -5.468920    4.707170
  C     -1.755390   -5.851800    5.335150
  C     -2.107540   -7.084590    4.759720
  C     -1.348640   -8.227070    4.950060
  H     -2.988010   -7.147830    4.130130
  C     -0.167060   -8.201140    5.726770
  H     -1.672850   -9.144950    4.479400
  N      0.611900   -9.330770    5.896290
  C     -0.588280   -5.830920    6.116610
  H     -0.287960   -4.910040    6.604730
  C      0.184820   -6.963760    6.312630
  H      1.063320   -6.885060    6.938010
  C     -5.192860    8.396220    4.261250
  C     -6.585400    8.383030    4.557030
  N     -7.713950    8.330490    4.803590
  C     -4.623730    9.730370    3.962920
  O     -5.252380   10.760350    3.955600
  O     -3.291510    9.689130    3.690290
  H     -3.032670   10.603590    3.508330
  C     -4.421380    7.265310    4.248190
  H     -3.378010    7.435280    4.002900
  C      0.123510  -10.621220    5.437680
  H     -0.802350  -10.928600    5.945040
  H     -0.067280  -10.611960    4.359860
  H      0.883790  -11.377470    5.628970
  C      1.728660   -9.305570    6.826850
  H      2.452570   -8.531440    6.553400
  H      1.412740   -9.125530    7.864690
  H      2.244030  -10.264470    6.789160

----------------------------
CARTESIAN COORDINATES (A.U.)
----------------------------
  NO LB      ZA    FRAG     MASS         X           Y           Z
   0 N     7.0000    0    14.007   -3.605579    4.544413    8.923362
   1 N     7.0000    0    14.007   -2.542003   -0.541236    9.270259
   2 C     6.0000    0    12.011   -5.523499    2.866526    9.087561
   3 C     6.0000    0    12.011   -4.972625    0.226484    9.171616
   4 C     6.0000    0    12.011   -1.236920    3.767660    8.915860
   5 C     6.0000    0    12.011   -0.679905    1.115751    9.223092
   6 C     6.0000    0    12.011   -8.073609    3.765128    9.098294
   7 C     6.0000    0    12.011   -6.957991   -1.622689    9.218878
   8 C     6.0000    0    12.011   -9.949748    1.916315    9.160183
   9 C     6.0000    0    12.011   -9.415901   -0.664957    9.230537
  10 H     1.0000    0     1.008  -11.917161    2.475787    9.131610
  11 H     1.0000    0     1.008  -10.997753   -1.958172    9.317351
  12 C     6.0000    0    12.011    0.714335    5.754802    8.518526
  13 C     6.0000    0    12.011    0.497508    8.068299    9.789235
  14 C     6.0000    0    12.011    2.702195    5.416919    6.802617
  15 C     6.0000    0    12.011    2.253102    9.983650    9.384588
  16 H     1.0000    0     1.008   -1.054883    8.344842   11.094129
  17 C     6.0000    0    12.011    4.435187    7.348087    6.375974
  18 H     1.0000    0     1.008    2.881530    3.652141    5.780748
  19 C     6.0000    0    12.011    4.225768    9.630082    7.674726
  20 H     1.0000    0     1.008    2.075581   11.755589   10.398502
  21 H     1.0000    0     1.008    5.950502    7.069220    5.025254
  22 H     1.0000    0     1.008    5.587788   11.126481    7.350713
  23 C     6.0000    0    12.011    1.912630    0.075646    9.556496
  24 C     6.0000    0    12.011    3.659549    1.208801   11.192508
  25 C     6.0000    0    12.011    2.590342   -2.160637    8.309693
  26 C     6.0000    0    12.011    6.031798    0.135456   11.560607
  27 H     1.0000    0     1.008    3.157147    2.918777   12.199505
  28 C     6.0000    0    12.011    4.975214   -3.212327    8.656817
  29 H     1.0000    0     1.008    1.231478   -3.062868    7.073831
  30 C     6.0000    0    12.011    6.703123   -2.068154   10.283474
  31 H     1.0000    0     1.008    7.355664    1.022455   12.848664
  32 H     1.0000    0     1.008    5.479903   -4.932147    7.663444
  33 H     1.0000    0     1.008    8.558778   -2.892528   10.560564
  34 C     6.0000    0    12.011   -8.744916    6.438883    9.034478
  35 C     6.0000    0    12.011  -11.144017    7.434183    9.470929
  36 S    16.0000    0    32.060   -6.649020    8.863685    8.279004
  37 C     6.0000    0    12.011  -11.320952   10.053948    9.177077
  38 H     1.0000    0     1.008  -12.738549    6.282376   10.022729
  39 C     6.0000    0    12.011   -9.038787   11.166675    8.502539
  40 H     1.0000    0     1.008  -13.048181   11.104333    9.461084
  41 C     6.0000    0    12.011   -6.516588   -4.338452    9.247998
  42 C     6.0000    0    12.011   -8.317819   -6.194787    8.853424
  43 S    16.0000    0    32.060   -3.584489   -5.771356    9.888540
  44 C     6.0000    0    12.011   -7.410769   -8.682933    9.101658
  45 H     1.0000    0     1.008  -10.263311   -5.776534    8.385187
  46 C     6.0000    0    12.011   -4.874360   -8.810224    9.697356
  47 H     1.0000    0     1.008   -8.598443  -10.334761    8.895262
  48 C     6.0000    0    12.011   -3.317206  -11.058299   10.081972
  49 C     6.0000    0    12.011   -3.982673  -13.387935    8.994567
  50 C     6.0000    0    12.011   -2.548560  -15.546909    9.354258
  51 H     1.0000    0     1.008   -5.646521  -13.507441    7.804815
  52 C     6.0000    0    12.011   -0.315698  -15.497909   10.822027
  53 H     1.0000    0     1.008   -3.161228  -17.281451    8.464839
  54 N     7.0000    0    14.007    1.156323  -17.632600   11.142373
  55 C     6.0000    0    12.011   -1.111688  -11.018842   11.558718
  56 H     1.0000    0     1.008   -0.544166   -9.278631   12.481131
  57 C     6.0000    0    12.011    0.349259  -13.159599   11.929142
  58 H     1.0000    0     1.008    2.009384  -13.010878   13.110939
  59 C     6.0000    0    12.011   -9.813083   15.866556    8.052595
  60 C     6.0000    0    12.011  -12.444602   15.841631    8.611539
  61 N     7.0000    0    14.007  -14.577253   15.742345    9.077470
  62 C     6.0000    0    12.011   -8.737583   18.387734    7.488833
  63 O     8.0000    0    15.999   -9.925560   20.334115    7.475001
  64 O     8.0000    0    15.999   -6.220052   18.309802    6.973637
  65 H     1.0000    0     1.008   -5.730916   20.037881    6.629783
  66 C     6.0000    0    12.011   -8.355197   13.729446    8.027916
  67 H     1.0000    0     1.008   -6.383514   14.050643    7.564385
  68 C     6.0000    0    12.011    0.233400  -20.071197   10.275726
  69 H     1.0000    0     1.008   -1.516222  -20.652061   11.234497
  70 H     1.0000    0     1.008   -0.127141  -20.053698    8.238941
  71 H     1.0000    0     1.008    1.670121  -21.500302   10.637212
  72 C     6.0000    0    12.011    3.266694  -17.584979   12.900877
  73 H     1.0000    0     1.008    4.634686  -16.122085   12.384131
  74 H     1.0000    0     1.008    2.669692  -17.244753   14.862110
  75 H     1.0000    0     1.008    4.240602  -19.397037   12.829653

--------------------------------
INTERNAL COORDINATES (ANGSTROEM)
--------------------------------
 N      0   0   0     0.000000000000     0.00000000     0.00000000
 N      1   0   0     2.755553585289     0.00000000     0.00000000
 C      1   2   0     1.351287862929    60.48768290     0.00000000
 C      2   1   3     1.349873935040    60.58516195     2.47035232
 C      1   2   3     1.319121478902    60.11874009   180.32010199
 C      2   1   3     1.319259311735    60.14356013   183.02117915
 C      3   1   2     1.430801811713   119.35740922   179.50948284
 C      4   2   1     1.435948259444   119.43176401   179.26184299
 C      7   3   1     1.394242798475   116.00697710   177.28400284
 C      9   7   3     1.395353620198   122.91412055     0.54655031
 H      9   7   3     1.082492572769   119.51243179   181.27849835
 H     10   9   7     1.082189745655   117.61777582   178.66760215
 C      5   1   2     1.488672839713   116.06528449   175.54504218
 C     13   5   1     1.401469027485   119.50446576    43.42144329
 C     13   5   1     1.401080470673   121.47688257   226.67057724
 C     14  13   5     1.391486144703   120.51720522   182.10009269
 H     14  13   5     1.083087755494   119.07950896     2.19408460
 C     15  13   5     1.391514305137   120.41329571   176.95417106
 H     15  13   5     1.083304401773   119.95290853   357.76098347
 C     18  15  13     1.393868925581   120.25528196     0.71977002
 H     16  14  13     1.084400721182   119.72673942   180.76985323
 H     18  15  13     1.084282506868   119.62941822   180.76982390
 H     20  18  15     1.084399074926   120.12115985   179.48421402
 C      6   2   1     1.488692296279   116.12626470   175.65887396
 C     24   6   2     1.401301074752   121.53054096   225.62655109
 C     24   6   2     1.401548078876   119.48460692    42.31731052
 C     25  24   6     1.391558227240   120.45997889   177.03437027
 H     25  24   6     1.083259178775   119.96438461   357.84180865
 C     26  24   6     1.391460433286   120.50663653   182.08292262
 H     26  24   6     1.082925629995   119.11975435     1.96889880
 C     27  25  24     1.393821352039   120.23413472     0.63505860
 H     27  25  24     1.084294282056   119.61398524   180.68918385
 H     29  26  24     1.084398055098   119.67306026   180.67046437
 H     31  27  25     1.084467968822   120.11693473   179.46627584
 C      7   3   1     1.459194840520   123.48863157   357.63803661
 C     35   7   3     1.393736732744   125.75679546   191.61316838
 S     35   7   3     1.742527124868   124.35866249    14.04814030
 C     36  35   7     1.398152341235   114.66231074   182.98801293
 H     36  35   7     1.081086492469   122.86481759     3.94075864
 C     38  36  35     1.390180168288   112.97696670   359.90058787
 H     38  36  35     1.080258982744   123.46150279   180.40714961
 C      8   4   2     1.456060087668   123.73886462   356.95370154
 C     42   8   4     1.384594784693   126.03024086   191.99205054
 S     42   8   4     1.759918938247   124.66059622    13.90673693
 C     43  42   8     1.407574416718   114.50841219   182.84546596
 H     43  42   8     1.081791448201   122.99232664     3.07287338
 C     45  43  42     1.380374951453   113.48666349     0.00000000
 H     45  43  42     1.082126138951   123.23888520   178.44789372
 C     47  45  43     1.461381701644   128.30125005   180.31840965
 C     49  47  45     1.405311528274   121.05012561    24.03212332
 C     50  49  47     1.384709022141   122.01627935   180.63811194
 H     50  49  47     1.084255637108   119.49956798     1.87113786
 C     51  50  49     1.414242583647   121.21559024   359.29708897
 H     51  50  49     1.081266227208   118.43950777   180.04255446
 N     53  51  50     1.382598874909   121.53859839   181.48368815
 C     49  47  45     1.404728250624   122.26630255   204.60842341
 H     56  49  47     1.084653498220   119.53901341     1.09888266
 C     56  49  47     1.385436363028   122.01778677   179.60915072
 H     58  56  49     1.081228969460   118.40557294   180.95273225
 C     40  38  36     2.531816672372   107.43569540   179.64442128
 C     60  40  38     1.423666897873    97.44986402   358.94869543
 N     61  60  40     1.156363864750   177.90021856     1.82439361
 C     60  40  38     1.480832863054   147.32749201   179.22759090
 O     63  60  40     1.206695158398   124.75050383   179.55377552
 O     63  60  40     1.360455064638   112.91815681   359.55477897
 H     65  63  60     0.967649047331   105.72247839   179.70840538
 C     60  40  38     1.369054192536    25.61062304   178.73824448
 H     67  60  40     1.085208708913   114.49186739   179.61227350
 C     55  53  51     1.453997636415   119.81598583   350.92648753
 H     69  55  53     1.099596914146   112.66768316   298.42042434
 H     69  55  53     1.094615240210   111.19920101    59.90320604
 H     69  55  53     1.089280315162   109.04682700   178.25090967
 C     55  53  51     1.453867205490   119.80717181   187.26645206
 H     73  55  53     1.094576560822   111.12286443   300.84476417
 H     73  55  53     1.099696191500   112.71986236    62.31269121
 H     73  55  53     1.089273144349   109.02750414   182.51119735

---------------------------
INTERNAL COORDINATES (A.U.)
---------------------------
 N      0   0   0     0.000000000000     0.00000000     0.00000000
 N      1   0   0     5.207241623541     0.00000000     0.00000000
 C      1   2   0     2.553563989028    60.48768290     0.00000000
 C      2   1   3     2.550892052544    60.58516195     2.47035232
 C      1   2   3     2.492778332498    60.11874009   180.32010199
 C      2   1   3     2.493038798805    60.14356013   183.02117915
 C      3   1   2     2.703823576055   119.35740922   179.50948284
 C      4   2   1     2.713548952830   119.43176401   179.26184299
 C      7   3   1     2.634737053310   116.00697710   177.28400284
 C      9   7   3     2.636836202150   122.91412055     0.54655031
 H      9   7   3     2.045614504537   119.51243179   181.27849835
 H     10   9   7     2.045042244225   117.61777582   178.66760215
 C      5   1   2     2.813183970065   116.06528449   175.54504218
 C     13   5   1     2.648392647120   119.50446576    43.42144329
 C     13   5   1     2.647658381157   121.47688257   226.67057724
 C     14  13   5     2.629527732634   120.51720522   182.10009269
 H     14  13   5     2.046739236886   119.07950896     2.19408460
 C     15  13   5     2.629580948142   120.41329571   176.95417106
 H     15  13   5     2.047148639022   119.95290853   357.76098347
 C     18  15  13     2.634030535931   120.25528196     0.71977002
 H     16  14  13     2.049220382461   119.72673942   180.76985323
 H     18  15  13     2.048996989782   119.62941822   180.76982390
 H     20  18  15     2.049217271487   120.12115985   179.48421402
 C      6   2   1     2.813220737645   116.12626470   175.65887396
 C     24   6   2     2.648075262450   121.53054096   225.62655109
 C     24   6   2     2.648542032598   119.48460692    42.31731052
 C     25  24   6     2.629663948889   120.45997889   177.03437027
 H     25  24   6     2.047063179941   119.96438461   357.84180865
 C     26  24   6     2.629479145098   120.50663653   182.08292262
 H     26  24   6     2.046432864095   119.11975435     1.96889880
 C     27  25  24     2.633940634966   120.23413472     0.63505860
 H     27  25  24     2.049019241663   119.61398524   180.68918385
 H     29  26  24     2.049215344292   119.67306026   180.67046437
 H     31  27  25     2.049347462083   120.11693473   179.46627584
 C      7   3   1     2.757478624614   123.48863157   357.63803661
 C     35   7   3     2.633780727672   125.75679546   191.61316838
 S     35   7   3     3.292899046929   124.35866249    14.04814030
 C     36  35   7     2.642125018434   114.66231074   182.98801293
 H     36  35   7     2.042957397849   122.86481759     3.94075864
 C     38  36  35     2.627059794872   112.97696670   359.90058787
 H     38  36  35     2.041393631095   123.46150279   180.40714961
 C      8   4   2     2.751554800226   123.73886462   356.95370154
 C     42   8   4     2.616504949526   126.03024086   191.99205054
 S     42   8   4     3.325764811188   124.66059622    13.90673693
 C     43  42   8     2.659930160712   114.50841219   182.84546596
 H     43  42   8     2.044289571117   122.99232664     3.07287338
 C     45  43  42     2.608530620372   113.48666349     0.00000000
 H     45  43  42     2.044922044974   123.23888520   178.44789372
 C     47  45  43     2.761611193231   128.30125005   180.31840965
 C     49  47  45     2.655653921280   121.05012561    24.03212332
 C     50  49  47     2.616720827017   122.01627935   180.63811194
 H     50  49  47     2.048946213294   119.49956798     1.87113786
 C     51  50  49     2.672531170022   121.21559024   359.29708897
 H     51  50  49     2.043297047281   118.43950777   180.04255446
 N     53  51  50     2.612733226646   121.53859839   181.48368815
 C     49  47  45     2.654551686261   122.26630255   204.60842341
 H     56  49  47     2.049698061835   119.53901341     1.09888266
 C     56  49  47     2.618095302099   122.01778677   179.60915072
 H     58  56  49     2.043226640342   118.40557294   180.95273225
 C     40  38  36     4.784440132079   107.43569540   179.64442128
 C     60  40  38     2.690340542910    97.44986402   358.94869543
 N     61  60  40     2.185211015541   177.90021856     1.82439361
 C     60  40  38     2.798368561282   147.32749201   179.22759090
 O     63  60  40     2.280323376500   124.75050383   179.55377552
 O     63  60  40     2.570887489673   112.91815681   359.55477897
 H     65  63  60     1.828591693205   105.72247839   179.70840538
 C     60  40  38     2.587137486389    25.61062304   178.73824448
 H     67  60  40     2.050747257991   114.49186739   179.61227350
 C     55  53  51     2.747657332193   119.81598583   350.92648753
 H     69  55  53     2.077937025441   112.66768316   298.42042434
 H     69  55  53     2.068523026013   111.19920101    59.90320604
 H     69  55  53     2.058441478728   109.04682700   178.25090967
 C     55  53  51     2.747410853466   119.80717181   187.26645206
 H     73  55  53     2.068449932562   111.12286443   300.84476417
 H     73  55  53     2.078124632452   112.71986236    62.31269121
 H     73  55  53     2.058427927855   109.02750414   182.51119735

---------------------
BASIS SET INFORMATION
---------------------
There are 5 groups of distinct atoms

 Group   1 Type N   : 11s5p1d contracted to 4s3p1d pattern {6311/311/1}
 Group   2 Type C   : 11s5p1d contracted to 4s3p1d pattern {6311/311/1}
 Group   3 Type H   : 5s1p contracted to 3s1p pattern {311/1}
 Group   4 Type S   : 13s9p1d contracted to 6s5p1d pattern {631111/42111/1}
 Group   5 Type O   : 11s5p1d contracted to 4s3p1d pattern {6311/311/1}

Atom   0N    basis set group =>   1
Atom   1N    basis set group =>   1
Atom   2C    basis set group =>   2
Atom   3C    basis set group =>   2
Atom   4C    basis set group =>   2
Atom   5C    basis set group =>   2
Atom   6C    basis set group =>   2
Atom   7C    basis set group =>   2
Atom   8C    basis set group =>   2
Atom   9C    basis set group =>   2
Atom  10H    basis set group =>   3
Atom  11H    basis set group =>   3
Atom  12C    basis set group =>   2
Atom  13C    basis set group =>   2
Atom  14C    basis set group =>   2
Atom  15C    basis set group =>   2
Atom  16H    basis set group =>   3
Atom  17C    basis set group =>   2
Atom  18H    basis set group =>   3
Atom  19C    basis set group =>   2
Atom  20H    basis set group =>   3
Atom  21H    basis set group =>   3
Atom  22H    basis set group =>   3
Atom  23C    basis set group =>   2
Atom  24C    basis set group =>   2
Atom  25C    basis set group =>   2
Atom  26C    basis set group =>   2
Atom  27H    basis set group =>   3
Atom  28C    basis set group =>   2
Atom  29H    basis set group =>   3
Atom  30C    basis set group =>   2
Atom  31H    basis set group =>   3
Atom  32H    basis set group =>   3
Atom  33H    basis set group =>   3
Atom  34C    basis set group =>   2
Atom  35C    basis set group =>   2
Atom  36S    basis set group =>   4
Atom  37C    basis set group =>   2
Atom  38H    basis set group =>   3
Atom  39C    basis set group =>   2
Atom  40H    basis set group =>   3
Atom  41C    basis set group =>   2
Atom  42C    basis set group =>   2
Atom  43S    basis set group =>   4
Atom  44C    basis set group =>   2
Atom  45H    basis set group =>   3
Atom  46C    basis set group =>   2
Atom  47H    basis set group =>   3
Atom  48C    basis set group =>   2
Atom  49C    basis set group =>   2
Atom  50C    basis set group =>   2
Atom  51H    basis set group =>   3
Atom  52C    basis set group =>   2
Atom  53H    basis set group =>   3
Atom  54N    basis set group =>   1
Atom  55C    basis set group =>   2
Atom  56H    basis set group =>   3
Atom  57C    basis set group =>   2
Atom  58H    basis set group =>   3
Atom  59C    basis set group =>   2
Atom  60C    basis set group =>   2
Atom  61N    basis set group =>   1
Atom  62C    basis set group =>   2
Atom  63O    basis set group =>   5
Atom  64O    basis set group =>   5
Atom  65H    basis set group =>   3
Atom  66C    basis set group =>   2
Atom  67H    basis set group =>   3
Atom  68C    basis set group =>   2
Atom  69H    basis set group =>   3
Atom  70H    basis set group =>   3
Atom  71H    basis set group =>   3
Atom  72C    basis set group =>   2
Atom  73H    basis set group =>   3
Atom  74H    basis set group =>   3
Atom  75H    basis set group =>   3
---------------------------------
AUXILIARY/J BASIS SET INFORMATION
---------------------------------
There are 5 groups of distinct atoms

 Group   1 Type N   : 12s5p4d2f1g contracted to 6s4p3d1f1g pattern {711111/2111/211/2/1}
 Group   2 Type C   : 12s5p4d2f1g contracted to 6s4p3d1f1g pattern {711111/2111/211/2/1}
 Group   3 Type H   : 5s2p1d contracted to 3s1p1d pattern {311/2/1}
 Group   4 Type S   : 14s5p5d2f1g contracted to 8s4p3d1f1g pattern {71111111/2111/311/2/1}
 Group   5 Type O   : 12s5p4d2f1g contracted to 6s4p3d1f1g pattern {711111/2111/211/2/1}

Atom   0N    basis set group =>   1
Atom   1N    basis set group =>   1
Atom   2C    basis set group =>   2
Atom   3C    basis set group =>   2
Atom   4C    basis set group =>   2
Atom   5C    basis set group =>   2
Atom   6C    basis set group =>   2
Atom   7C    basis set group =>   2
Atom   8C    basis set group =>   2
Atom   9C    basis set group =>   2
Atom  10H    basis set group =>   3
Atom  11H    basis set group =>   3
Atom  12C    basis set group =>   2
Atom  13C    basis set group =>   2
Atom  14C    basis set group =>   2
Atom  15C    basis set group =>   2
Atom  16H    basis set group =>   3
Atom  17C    basis set group =>   2
Atom  18H    basis set group =>   3
Atom  19C    basis set group =>   2
Atom  20H    basis set group =>   3
Atom  21H    basis set group =>   3
Atom  22H    basis set group =>   3
Atom  23C    basis set group =>   2
Atom  24C    basis set group =>   2
Atom  25C    basis set group =>   2
Atom  26C    basis set group =>   2
Atom  27H    basis set group =>   3
Atom  28C    basis set group =>   2
Atom  29H    basis set group =>   3
Atom  30C    basis set group =>   2
Atom  31H    basis set group =>   3
Atom  32H    basis set group =>   3
Atom  33H    basis set group =>   3
Atom  34C    basis set group =>   2
Atom  35C    basis set group =>   2
Atom  36S    basis set group =>   4
Atom  37C    basis set group =>   2
Atom  38H    basis set group =>   3
Atom  39C    basis set group =>   2
Atom  40H    basis set group =>   3
Atom  41C    basis set group =>   2
Atom  42C    basis set group =>   2
Atom  43S    basis set group =>   4
Atom  44C    basis set group =>   2
Atom  45H    basis set group =>   3
Atom  46C    basis set group =>   2
Atom  47H    basis set group =>   3
Atom  48C    basis set group =>   2
Atom  49C    basis set group =>   2
Atom  50C    basis set group =>   2
Atom  51H    basis set group =>   3
Atom  52C    basis set group =>   2
Atom  53H    basis set group =>   3
Atom  54N    basis set group =>   1
Atom  55C    basis set group =>   2
Atom  56H    basis set group =>   3
Atom  57C    basis set group =>   2
Atom  58H    basis set group =>   3
Atom  59C    basis set group =>   2
Atom  60C    basis set group =>   2
Atom  61N    basis set group =>   1
Atom  62C    basis set group =>   2
Atom  63O    basis set group =>   5
Atom  64O    basis set group =>   5
Atom  65H    basis set group =>   3
Atom  66C    basis set group =>   2
Atom  67H    basis set group =>   3
Atom  68C    basis set group =>   2
Atom  69H    basis set group =>   3
Atom  70H    basis set group =>   3
Atom  71H    basis set group =>   3
Atom  72C    basis set group =>   2
Atom  73H    basis set group =>   3
Atom  74H    basis set group =>   3
Atom  75H    basis set group =>   3
------------------------------------------------------------------------------
                             ORCA STARTUP CALCULATIONS
                           -- RI-GTO INTEGRALS CHOSEN --
------------------------------------------------------------------------------
------------------------------------------------------------------------------
                   ___                                                        
                  /   \      - P O W E R E D   B Y -                         
                 /     \                                                     
                 |  |  |   _    _      __       _____    __    __             
                 |  |  |  | |  | |    /  \     |  _  \  |  |  /  |          
                  \  \/   | |  | |   /    \    | | | |  |  | /  /          
                 / \  \   | |__| |  /  /\  \   | |_| |  |  |/  /          
                |  |  |   |  __  | /  /__\  \  |    /   |      \           
                |  |  |   | |  | | |   __   |  |    \   |  |\   \          
                \     /   | |  | | |  |  |  |  | |\  \  |  | \   \       
                 \___/    |_|  |_| |__|  |__|  |_| \__\ |__|  \__/        
                                                                              
                      - O R C A' S   B I G   F R I E N D -                    
                                      &                                       
                       - I N T E G R A L  F E E D E R -                       
                                                                              
 v1 FN, 2020, v2 2021, v3 2022-2024                                           
------------------------------------------------------------------------------


----------------------
SHARK INTEGRAL PACKAGE
----------------------

Number of atoms                             ...     76
Number of basis functions                   ...   1048
Number of shells                            ...    504
Maximum angular momentum                    ...      2
Integral batch strategy                     ... SHARK/LIBINT Hybrid
RI-J (if used) integral strategy            ... SPLIT-RIJ (Revised 2003 algorithm where possible)
Printlevel                                  ...      1
Contraction scheme used                     ... SEGMENTED contraction
Prescreening option                         ... SCHWARTZ
   Thresh                                   ... 2.500e-11
   Tcut                                     ... 2.500e-12
   Tpresel                                  ... 2.500e-12 
Coulomb Range Separation                    ... NOT USED
Exchange Range Separation                   ... Long Range
   Mu parameter                             ... 3.000e-01
   Scaling (regular/separated)              ... 1.577e-01 8.423e-01
Multipole approximations                    ... NOT USED
Finite Nucleus Model                        ... NOT USED
CABS basis                                  ... NOT available
Auxiliary Coulomb fitting basis             ... AVAILABLE
   # of basis functions in Aux-J            ...   2664
   # of shells in Aux-J                     ...    864
   Maximum angular momentum in Aux-J        ...      4
Auxiliary J/K fitting basis                 ... NOT available
Auxiliary Correlation fitting basis         ... NOT available
Auxiliary 'external' fitting basis          ... NOT available

Checking pre-screening integrals            ... done (  0.0 sec) Dimension = 504
Check shell pair data                       ... done (  0.0 sec)
Shell pair information
Shell pair cut-off parameter TPreSel        ...   2.5e-12
Total number of shell pairs                 ...    127260
Shell pairs after pre-screening             ...     47265
Total number of primitive shell pairs       ...    497606
Primitive shell pairs kept                  ...    106218
          la=0 lb=0:  13929 shell pairs
          la=1 lb=0:  18813 shell pairs
          la=1 lb=1:   6453 shell pairs
          la=2 lb=0:   4534 shell pairs
          la=2 lb=1:   3128 shell pairs
          la=2 lb=2:    408 shell pairs

Calculating one electron integrals          ... done (  0.2 sec)
Calculating RI/J V-Matrix + Cholesky decomp.... done (  0.2 sec)
Calculating Nuclear repulsion               ... done (  0.0 sec) ENN=   5647.877576610078 Eh

Diagonalization of the overlap matrix:
Smallest eigenvalue                        ... 9.002e-05
Time for diagonalization                   ...    0.111 sec
Threshold for overlap eigenvalues          ... 1.000e-07
Number of eigenvalues below threshold      ... 0
Time for construction of square roots      ...    0.065 sec
Total time needed                          ...    0.177 sec

-------------------
DFT GRID GENERATION
-------------------

General Integration Accuracy     IntAcc      ... 4.388
Radial Grid Type                 RadialGrid  ... OptM3 with GC (2021)
Angular Grid (max. ang.)         AngularGrid ... 4 (Lebedev-302)
Angular grid pruning method      GridPruning ... 4 (adaptive)
Weight generation scheme         WeightScheme... mBecke (2022)
Basis function cutoff            BFCut       ... 1.0000e-11
Integration weight cutoff        WCut        ... 1.0000e-14
Partially contracted basis set               ... off
Rotationally invariant grid construction     ... off
Angular grids for H and He will be reduced by one unit

Total number of grid points                  ...   377867
Total number of batches                      ...     5946
Average number of points per batch           ...       63
Average number of grid points per atom       ...     4972

--------------------
COSX GRID GENERATION
--------------------

GRIDX 1
-------
General Integration Accuracy     IntAcc      ... 3.816
Radial Grid Type                 RadialGrid  ... OptM3 with GC (2021)
Angular Grid (max. ang.)         AngularGrid ... 1 (Lebedev-50)
Angular grid pruning method      GridPruning ... 4 (adaptive)
Weight generation scheme         WeightScheme... mBecke (2022)
Basis function cutoff            BFCut       ... 1.0000e-11
Integration weight cutoff        WCut        ... 1.0000e-14
Partially contracted basis set               ... on
Rotationally invariant grid construction     ... off
Angular grids for H and He will be reduced by one unit

Total number of grid points                  ...    49914
Total number of batches                      ...      430
Average number of points per batch           ...      116
Average number of grid points per atom       ...      657
UseSFitting                                  ... on

GRIDX 2
-------
General Integration Accuracy     IntAcc      ... 4.020
Radial Grid Type                 RadialGrid  ... OptM3 with GC (2021)
Angular Grid (max. ang.)         AngularGrid ... 2 (Lebedev-110)
Angular grid pruning method      GridPruning ... 4 (adaptive)
Weight generation scheme         WeightScheme... mBecke (2022)
Basis function cutoff            BFCut       ... 1.0000e-11
Integration weight cutoff        WCut        ... 1.0000e-14
Partially contracted basis set               ... on
Rotationally invariant grid construction     ... off
Angular grids for H and He will be reduced by one unit

Total number of grid points                  ...   104511
Total number of batches                      ...      854
Average number of points per batch           ...      122
Average number of grid points per atom       ...     1375
UseSFitting                                  ... on

GRIDX 3
-------
General Integration Accuracy     IntAcc      ... 4.338
Radial Grid Type                 RadialGrid  ... OptM3 with GC (2021)
Angular Grid (max. ang.)         AngularGrid ... 3 (Lebedev-194)
Angular grid pruning method      GridPruning ... 4 (adaptive)
Weight generation scheme         WeightScheme... mBecke (2022)
Basis function cutoff            BFCut       ... 1.0000e-11
Integration weight cutoff        WCut        ... 1.0000e-14
Partially contracted basis set               ... on
Rotationally invariant grid construction     ... off
Angular grids for H and He will be reduced by one unit

Total number of grid points                  ...   229465
Total number of batches                      ...     1830
Average number of points per batch           ...      125
Average number of grid points per atom       ...     3019
UseSFitting                                  ... on
Initializing property integral containers    ... done (  0.0 sec)

SHARK setup successfully completed in   9.1 seconds

Maximum memory used throughout the entire STARTUP-calculation: 199.6 MB
-------------------------------------------------------------------------------
                                 ORCA GUESS
                   Start orbitals & Density for SCF / CASSCF
-------------------------------------------------------------------------------

------------
SCF SETTINGS
------------
Hamiltonian:
 Density Functional     Method          .... DFT(GTOs)
 Exchange Functional    Exchange        .... WB97X
 Correlation Functional Correlation     .... WB97X
 Gradients option       PostSCFGGA      .... off
 Hybrid DFT is turned on
   Fraction HF Exchange ScalHFX         ....  0.157706
   Scaling of DF-GGA-X  ScalDFX         ....  0.000000
   Scaling of DF-GGA-C  ScalDFC         ....  1.000000
   Scaling of DF-LDA-C  ScalLDAC        ....  1.000000
   Perturbative correction              ....  0.000000
 Long-range corrected/Screened/Range-Separated Hybrid DFT is turned on
   Amount of maximum screened exact exchange              ....  0.842294
   Range separation parameter mu (erf(mu*r12)/r12)        ....  0.300000
 RI-approximation to the Coulomb term is turned on
   Number of AuxJ basis functions       .... 2664
   RIJ-COSX (HFX calculated with COS-X)).... on


General Settings:
 Integral files         IntName         .... QX-DMA
 Hartree-Fock type      HFTyp           .... RHF
 Total Charge           Charge          ....    0
 Multiplicity           Mult            ....    1
 Number of Electrons    NEL             ....  344
 Basis Dimension        Dim             .... 1048
 Nuclear Repulsion      ENuc            ....   5647.8775766101 Eh

Convergence Acceleration:
 AO-DIIS                CNVDIIS         .... on
   Start iteration      DIISMaxIt       ....    12
   Startup error        DIISStart       ....  0.200000
   # of expansion vecs  DIISMaxEq       ....     5
   Bias factor          DIISBfac        ....   1.050
   Max. coefficient     DIISMaxC        ....  10.000
 MO-DIIS                CNVKDIIS        .... off
 Trust-Rad. Augm. Hess. CNVTRAH         .... auto
   Auto Start mean grad. ratio tolernc. ....  1.125000
   Auto Start start iteration           ....    50
   Auto Start num. interpolation iter.  ....    10
   Max. Number of Micro iterations      ....    24
   Max. Number of Macro iterations      .... Maxiter - #DIIS iter
   Number of Davidson start vectors     ....     2
   Converg. threshold    (grad. norm)   ....   1.000e-05
   Grad. Scal. Fac. for Micro threshold ....   0.100
   Minimum threshold for Micro iter.    ....   1.000e-02
   NR start threshold (gradient norm)   ....   1.000e-04
   Initial trust radius                 ....   0.400
   Minimum AH scaling param. (alpha)    ....   1.000
   Maximum AH scaling param. (alpha)    .... 1000.000
   Quad. conv. algorithm                .... NR
   White noise on init. David. guess    .... on
   Maximum white noise                  ....   0.010
   Pseudo random numbers                .... off
   Inactive MOs                         .... canonical
   Orbital update algorithm             .... Taylor
   Preconditioner                       .... Diag
   Full preconditioner red. dimension   ....   250
 SOSCF                  CNVSOSCF        .... on
   Start iteration      SOSCFMaxIt      ....   150
   Startup grad/error   SOSCFStart      ....  0.003300
   Hessian update       SOSCFHessUp     .... L-BFGS
 Level Shifting         CNVShift        .... on
   Level shift para.    LevelShift      ....    0.2500
   Turn off err/grad.   ShiftErr        ....    0.0010
 Zerner damping         CNVZerner       .... off
 Static damping         CNVDamp         .... on
   Fraction old density DampFac         ....    0.7000
   Max. Damping (<1)    DampMax         ....    0.9800
   Min. Damping (>=0)   DampMin         ....    0.0000
   Turn off err/grad.   DampErr         ....    0.1000

SCF Procedure:
 Maximum # iterations   MaxIter         ....   125
 SCF integral mode      SCFMode         .... Direct
   Integral package                     .... SHARK and LIBINT hybrid scheme
 Reset frequency        DirectResetFreq ....    20
 Integral Threshold     Thresh          ....  2.500e-11 Eh
 Primitive CutOff       TCut            ....  2.500e-12 Eh

Convergence Tolerance:
 Convergence Check Mode ConvCheckMode   .... Total+1el-Energy
 Convergence forced     ConvForced      .... 1
 Energy Change          TolE            ....  1.000e-08 Eh
 1-El. energy change                    ....  1.000e-05 Eh
 Orbital Gradient       TolG            ....  1.000e-05
 Orbital Rotation angle TolX            ....  1.000e-05
 DIIS Error             TolErr          ....  5.000e-07

------------------------------
INITIAL GUESS: MODEL POTENTIAL
------------------------------
Loading Hartree-Fock densities                     ... done
Calculating cut-offs                               ... done
Initializing the effective Hamiltonian             ... done
Setting up the integral package (SHARK)            ... done
Starting the Coulomb interaction                   ... done (   3.1 sec)
Making the grid                                    ... done (   1.1 sec)
Mapping shells                                     ... done
Starting the XC term evaluation                    ... done (   0.8 sec)
  promolecular density results
     # of electrons  =    343.987979923
     EX              =   -305.140801571
     EC              =    -11.752447150
     EX+EC           =   -316.893248722
Transforming the Hamiltonian                       ... done (   0.1 sec)
Diagonalizing the Hamiltonian                      ... done (   0.1 sec)
Back transforming the eigenvectors                 ... done (   0.1 sec)
Now organizing SCF variables                       ... done
                      ------------------
                      INITIAL GUESS DONE (   5.3 sec)
                      ------------------
             **** ENERGY FILE WAS UPDATED (QX-DMA.en.tmp) ****
Finished Guess after   5.6 sec
Maximum memory used throughout the entire GUESS-calculation: 128.8 MB

-------------------------------------------------------------------------------------------
                                      ORCA LEAN-SCF
                              memory conserving SCF solver
-------------------------------------------------------------------------------------------

--------------------
CPCM SOLVATION MODEL
--------------------
CPCM parameters:
  Epsilon                                         ...       7.5650
  Refrac                                          ...       1.4050
  Rsolv                                           ...       1.3000
  Surface type                                    ... GAUSSIAN VDW
  Discretization scheme                           ... Constant charge density
    Threshold for H atoms                         ...       5.0000 (charges/Ang^2)
    Threshold for non-H atoms                     ...       5.0000 (charges/Ang^2)
  Epsilon function type                           ...         CPCM
Solvent:                                          ... TETRAHYDROFURAN
Radii:
  Scheme                                          ... Element-dependent radii
  Radius for N  used is    3.5149 Bohr (=   1.8600 Ang.)
  Radius for C  used is    3.8550 Bohr (=   2.0400 Ang.)
  Radius for H  used is    2.4944 Bohr (=   1.3200 Ang.)
  Radius for S  used is    4.0818 Bohr (=   2.1600 Ang.)
  Radius for O  used is    3.4469 Bohr (=   1.8240 Ang.)
Calculating surface                               ...        done! (  0.0s)
Cavity surface points                             ...         6908
Cavity Volume                                     ...    5083.6184
Cavity Surface-area                               ...    2437.1551
Calculating surface distance matrix               ...        done! (  0.2s)
Performing Cholesky decomposition & store         ...        done! (  1.7s)
Overall time for CPCM initialization              ...                 1.9s

----------------------------------------D-I-I-S--------------------------------------------
Iteration    Energy (Eh)           Delta-E    RMSDP     MaxDP     DIISErr   Damp  Time(sec)
-------------------------------------------------------------------------------------------
               ***  Starting incremental Fock matrix formation  ***
    1    -2705.9353962452159976     0.00e+00  8.34e-04  9.12e-02  3.02e-01  0.700 137.8
    2    -2706.3296682178688570    -3.94e-01  6.68e-04  7.38e-02  1.43e-01  0.700  58.8
                               ***Turning on AO-DIIS***
    3    -2706.5330448026516024    -2.03e-01  3.98e-04  3.34e-02  5.35e-02  0.700  58.1
    4    -2706.6564041823667139    -1.23e-01  9.13e-04  7.48e-02  4.09e-02  0.000  55.4
    5    -2706.9245864500762764    -2.68e-01  9.10e-05  6.00e-03  8.47e-03  0.000  60.4
    6    -2706.9260670731391656    -1.48e-03  4.66e-05  3.53e-03  4.32e-03  0.000  51.0
                              *** Initializing SOSCF ***
---------------------------------------S-O-S-C-F--------------------------------------
Iteration    Energy (Eh)           Delta-E    RMSDP     MaxDP     MaxGrad    Time(sec)
--------------------------------------------------------------------------------------
    7    -2706.9266131113754454    -5.46e-04  3.59e-05  3.43e-03  2.14e-03    48.2
               *** Restarting incremental Fock matrix formation ***
    8    -2706.9270161052672847    -4.03e-04  3.04e-05  2.48e-03  1.30e-03   135.1
    9    -2706.9271647362502335    -1.49e-04  3.97e-05  3.71e-03  5.98e-04    89.6
   10    -2706.9272127949179776    -4.81e-05  1.24e-05  1.19e-03  5.17e-04    91.4
   11    -2706.9272296448716588    -1.68e-05  5.16e-06  6.11e-04  1.71e-04    80.0
   12    -2706.9272308653735308    -1.22e-06  2.47e-06  2.49e-04  7.72e-05    69.5
   13    -2706.9272318581251966    -9.93e-07  9.66e-07  1.20e-04  3.66e-05    60.5
   14    -2706.9272319632464132    -1.05e-07  7.94e-07  7.54e-05  2.03e-05    45.3
   15    -2706.9272320084264720    -4.52e-08  2.22e-07  2.56e-05  7.95e-06    45.1
   16    -2706.9272319848432744     2.36e-08  1.15e-07  7.42e-06  4.45e-06    34.3
   17    -2706.9272319753608826     9.48e-09  6.82e-08  4.10e-06  1.70e-06    31.0
                 **** Energy Check signals convergence ****

               *****************************************************
               *                     SUCCESS                       *
               *           SCF CONVERGED AFTER  17 CYCLES          *
               *****************************************************

Recomputing exchange energy using gridx3       ... done (  247.800 sec)
Old exchange energy                            :    -94.358948503 Eh
New exchange energy                            :    -94.358960056 Eh
Exchange energy change after final integration :     -0.000011553 Eh
Total energy after final integration           :  -2706.927243528 Eh
             **** ENERGY FILE WAS UPDATED (QX-DMA.en.tmp) ****

----------------
TOTAL SCF ENERGY
----------------

Total Energy       :      -2706.92724352824780 Eh          -73659.23506 eV

Components:
Nuclear Repulsion  :       5647.87757661007799 Eh          153686.56213 eV
Electronic Energy  :      -8354.76696679935776 Eh         -227344.76715 eV
One Electron Energy:     -14934.68533115548053 Eh         -406393.44850 eV
Two Electron Energy:       6579.91836435612367 Eh          179048.68135 eV
CPCM Dielectric    :         -0.03784178608224 Eh              -1.02973 eV

Virial components:
Potential Energy   :      -5406.33696654656342 Eh         -147113.90799 eV
Kinetic Energy     :       2699.40972301831516 Eh           73454.67293 eV
Virial Ratio       :          2.00278487568813

DFT components:
N(Alpha)           :      172.000091713013 electrons
N(Beta)            :      172.000091713013 electrons
N(Total)           :      344.000183426027 electrons
E(XC)              :     -229.349800257179 Eh       

CPCM Solvation Model Properties:
Surface-charge          :         -0.03989780610086
Corrected charge        :         -0.00000000000000
Outlying charge corr.   :          0.00005150572789 Eh               0.00140 eV
Free-energy (cav+disp)  :  This term is not implemented in the current solvation scheme

---------------
SCF CONVERGENCE
---------------

  Last Energy change         ...   -9.4824e-09  Tolerance :   1.0000e-08
  Last MAX-Density change    ...    4.0956e-06  Tolerance :   1.0000e-07
  Last RMS-Density change    ...    6.8191e-08  Tolerance :   5.0000e-09
  Last DIIS Error            ...    2.1412e-03  Tolerance :   5.0000e-07
  Last Orbital Gradient      ...    1.7004e-06  Tolerance :   1.0000e-05
  Last Orbital Rotation      ...    7.1463e-06  Tolerance :   1.0000e-05


----------------
ORBITAL ENERGIES
----------------

  NO   OCC          E(Eh)            E(eV) 
   0   2.0000     -88.876351     -2418.4485 
   1   2.0000     -88.859702     -2417.9954 
   2   2.0000     -19.242660      -523.6194 
   3   2.0000     -19.191010      -522.2139 
   4   2.0000     -14.419843      -392.3839 
   5   2.0000     -14.419192      -392.3662 
   6   2.0000     -14.409745      -392.1091 
   7   2.0000     -14.402234      -391.9047 
   8   2.0000     -10.411742      -283.3179 
   9   2.0000     -10.334571      -281.2180 
  10   2.0000     -10.332747      -281.1683 
  11   2.0000     -10.325391      -280.9682 
  12   2.0000     -10.325262      -280.9647 
  13   2.0000     -10.322498      -280.8894 
  14   2.0000     -10.320603      -280.8379 
  15   2.0000     -10.314914      -280.6831 
  16   2.0000     -10.312651      -280.6215 
  17   2.0000     -10.309596      -280.5384 
  18   2.0000     -10.306425      -280.4521 
  19   2.0000     -10.303273      -280.3663 
  20   2.0000     -10.300885      -280.3013 
  21   2.0000     -10.299670      -280.2683 
  22   2.0000     -10.298298      -280.2309 
  23   2.0000     -10.284722      -279.8615 
  24   2.0000     -10.284513      -279.8558 
  25   2.0000     -10.283214      -279.8205 
  26   2.0000     -10.282375      -279.7977 
  27   2.0000     -10.279256      -279.7128 
  28   2.0000     -10.279192      -279.7110 
  29   2.0000     -10.278694      -279.6975 
  30   2.0000     -10.275434      -279.6088 
  31   2.0000     -10.270519      -279.4750 
  32   2.0000     -10.269722      -279.4533 
  33   2.0000     -10.269294      -279.4417 
  34   2.0000     -10.268238      -279.4129 
  35   2.0000     -10.268106      -279.4094 
  36   2.0000     -10.267396      -279.3901 
  37   2.0000     -10.266661      -279.3700 
  38   2.0000     -10.266625      -279.3691 
  39   2.0000     -10.266153      -279.3562 
  40   2.0000     -10.266039      -279.3531 
  41   2.0000     -10.265427      -279.3365 
  42   2.0000     -10.265190      -279.3300 
  43   2.0000     -10.264137      -279.3014 
  44   2.0000     -10.263984      -279.2972 
  45   2.0000     -10.258003      -279.1344 
  46   2.0000     -10.253973      -279.0248 
  47   2.0000     -10.253773      -279.0194 
  48   2.0000      -8.071302      -219.6313 
  49   2.0000      -8.054926      -219.1857 
  50   2.0000      -6.033433      -164.1781 
  51   2.0000      -6.028832      -164.0529 
  52   2.0000      -6.026144      -163.9797 
  53   2.0000      -6.017140      -163.7347 
  54   2.0000      -6.012547      -163.6097 
  55   2.0000      -6.009574      -163.5288 
  56   2.0000      -1.248460       -33.9723 
  57   2.0000      -1.157547       -31.4985 
  58   2.0000      -1.138467       -30.9793 
  59   2.0000      -1.081594       -29.4317 
  60   2.0000      -1.066298       -29.0154 
  61   2.0000      -1.055747       -28.7283 
  62   2.0000      -1.041812       -28.3491 
  63   2.0000      -1.028622       -27.9902 
  64   2.0000      -1.015118       -27.6228 
  65   2.0000      -0.999244       -27.1908 
  66   2.0000      -0.998960       -27.1831 
  67   2.0000      -0.984983       -26.8028 
  68   2.0000      -0.976426       -26.5699 
  69   2.0000      -0.938324       -25.5331 
  70   2.0000      -0.936240       -25.4764 
  71   2.0000      -0.902967       -24.5710 
  72   2.0000      -0.896969       -24.4078 
  73   2.0000      -0.888208       -24.1694 
  74   2.0000      -0.887085       -24.1388 
  75   2.0000      -0.885696       -24.1010 
  76   2.0000      -0.884623       -24.0718 
  77   2.0000      -0.879692       -23.9376 
  78   2.0000      -0.873558       -23.7707 
  79   2.0000      -0.864308       -23.5190 
  80   2.0000      -0.846836       -23.0436 
  81   2.0000      -0.842099       -22.9147 
  82   2.0000      -0.811719       -22.0880 
  83   2.0000      -0.806269       -21.9397 
  84   2.0000      -0.796820       -21.6826 
  85   2.0000      -0.779537       -21.2123 
  86   2.0000      -0.771691       -20.9988 
  87   2.0000      -0.756193       -20.5771 
  88   2.0000      -0.738519       -20.0961 
  89   2.0000      -0.734529       -19.9875 
  90   2.0000      -0.733493       -19.9594 
  91   2.0000      -0.728665       -19.8280 
  92   2.0000      -0.724604       -19.7175 
  93   2.0000      -0.710004       -19.3202 
  94   2.0000      -0.695775       -18.9330 
  95   2.0000      -0.692261       -18.8374 
  96   2.0000      -0.681553       -18.5460 
  97   2.0000      -0.673094       -18.3158 
  98   2.0000      -0.664816       -18.0906 
  99   2.0000      -0.657048       -17.8792 
 100   2.0000      -0.651306       -17.7229 
 101   2.0000      -0.649809       -17.6822 
 102   2.0000      -0.642058       -17.4713 
 103   2.0000      -0.628271       -17.0961 
 104   2.0000      -0.624523       -16.9941 
 105   2.0000      -0.621301       -16.9065 
 106   2.0000      -0.611535       -16.6407 
 107   2.0000      -0.604070       -16.4376 
 108   2.0000      -0.594311       -16.1720 
 109   2.0000      -0.589415       -16.0388 
 110   2.0000      -0.586842       -15.9688 
 111   2.0000      -0.585515       -15.9327 
 112   2.0000      -0.579188       -15.7605 
 113   2.0000      -0.578149       -15.7322 
 114   2.0000      -0.575123       -15.6499 
 115   2.0000      -0.570395       -15.5212 
 116   2.0000      -0.563601       -15.3364 
 117   2.0000      -0.562125       -15.2962 
 118   2.0000      -0.561856       -15.2889 
 119   2.0000      -0.549764       -14.9598 
 120   2.0000      -0.547030       -14.8854 
 121   2.0000      -0.540215       -14.7000 
 122   2.0000      -0.536778       -14.6065 
 123   2.0000      -0.536002       -14.5854 
 124   2.0000      -0.533960       -14.5298 
 125   2.0000      -0.532684       -14.4951 
 126   2.0000      -0.530994       -14.4491 
 127   2.0000      -0.530173       -14.4268 
 128   2.0000      -0.521896       -14.2015 
 129   2.0000      -0.519838       -14.1455 
 130   2.0000      -0.517527       -14.0826 
 131   2.0000      -0.510189       -13.8830 
 132   2.0000      -0.506488       -13.7823 
 133   2.0000      -0.504115       -13.7177 
 134   2.0000      -0.502531       -13.6746 
 135   2.0000      -0.499540       -13.5932 
 136   2.0000      -0.498177       -13.5561 
 137   2.0000      -0.495498       -13.4832 
 138   2.0000      -0.493757       -13.4358 
 139   2.0000      -0.487998       -13.2791 
 140   2.0000      -0.485998       -13.2247 
 141   2.0000      -0.482290       -13.1238 
 142   2.0000      -0.478279       -13.0146 
 143   2.0000      -0.472999       -12.8709 
 144   2.0000      -0.469451       -12.7744 
 145   2.0000      -0.465627       -12.6703 
 146   2.0000      -0.461710       -12.5638 
 147   2.0000      -0.460145       -12.5212 
 148   2.0000      -0.455414       -12.3924 
 149   2.0000      -0.454061       -12.3556 
 150   2.0000      -0.451288       -12.2802 
 151   2.0000      -0.450243       -12.2517 
 152   2.0000      -0.446316       -12.1449 
 153   2.0000      -0.440360       -11.9828 
 154   2.0000      -0.435069       -11.8388 
 155   2.0000      -0.424025       -11.5383 
 156   2.0000      -0.412673       -11.2294 
 157   2.0000      -0.405986       -11.0474 
 158   2.0000      -0.404129       -10.9969 
 159   2.0000      -0.380839       -10.3632 
 160   2.0000      -0.379937       -10.3386 
 161   2.0000      -0.366329        -9.9683 
 162   2.0000      -0.364079        -9.9071 
 163   2.0000      -0.357559        -9.7297 
 164   2.0000      -0.355332        -9.6691 
 165   2.0000      -0.353394        -9.6163 
 166   2.0000      -0.351200        -9.5566 
 167   2.0000      -0.347931        -9.4677 
 168   2.0000      -0.333748        -9.0817 
 169   2.0000      -0.322917        -8.7870 
 170   2.0000      -0.295917        -8.0523 
 171   2.0000      -0.261214        -7.1080 
 172   0.0000      -0.049623        -1.3503 
 173   0.0000      -0.014079        -0.3831 
 174   0.0000       0.013946         0.3795 
 175   0.0000       0.026653         0.7253 
 176   0.0000       0.054755         1.4900 
 177   0.0000       0.056909         1.5486 
 178   0.0000       0.067355         1.8328 
 179   0.0000       0.070399         1.9157 
 180   0.0000       0.073685         2.0051 
 181   0.0000       0.076841         2.0910 
 182   0.0000       0.089379         2.4321 
*Only the first 10 virtual orbitals were printed.

                    ********************************
                    * MULLIKEN POPULATION ANALYSIS *
                    ********************************

-----------------------
MULLIKEN ATOMIC CHARGES
-----------------------
   0 N :   -0.338261
   1 N :   -0.325011
   2 C :    0.149862
   3 C :    0.133455
   4 C :    0.155580
   5 C :    0.147938
   6 C :   -0.022616
   7 C :    0.014839
   8 C :   -0.071651
   9 C :   -0.090310
  10 H :    0.142823
  11 H :    0.140200
  12 C :   -0.122485
  13 C :   -0.082695
  14 C :   -0.080986
  15 C :   -0.129584
  16 H :    0.138072
  17 C :   -0.126218
  18 H :    0.141152
  19 C :   -0.123417
  20 H :    0.139242
  21 H :    0.139508
  22 H :    0.140241
  23 C :   -0.120361
  24 C :   -0.082245
  25 C :   -0.080501
  26 C :   -0.127200
  27 H :    0.140421
  28 C :   -0.129981
  29 H :    0.138841
  30 C :   -0.123788
  31 H :    0.138829
  32 H :    0.139128
  33 H :    0.139611
  34 C :   -0.233022
  35 C :   -0.062739
  36 S :    0.350533
  37 C :   -0.022369
  38 H :    0.151401
  39 C :   -0.323675
  40 H :    0.153063
  41 C :   -0.274784
  42 C :   -0.056908
  43 S :    0.302145
  44 C :   -0.093279
  45 H :    0.141663
  46 C :   -0.275586
  47 H :    0.139216
  48 C :   -0.006849
  49 C :   -0.103391
  50 C :   -0.180888
  51 H :    0.129450
  52 C :    0.243189
  53 H :    0.140493
  54 N :   -0.438793
  55 C :   -0.141792
  56 H :    0.135740
  57 C :   -0.182596
  58 H :    0.140955
  59 C :   -0.193990
  60 C :    0.031048
  61 N :   -0.243643
  62 C :    0.415177
  63 O :   -0.345932
  64 O :   -0.343873
  65 H :    0.302145
  66 C :    0.092234
  67 H :    0.170993
  68 C :   -0.210516
  69 H :    0.128876
  70 H :    0.134002
  71 H :    0.138879
  72 C :   -0.211150
  73 H :    0.134287
  74 H :    0.129010
  75 H :    0.138846
Sum of atomic charges:   -0.0000000

--------------------------------
MULLIKEN REDUCED ORBITAL CHARGES
--------------------------------
  0 N s       :     3.609605  s :     3.609605
      pz      :     1.111971  p :     3.693434
      px      :     1.068712
      py      :     1.512750
      dz2     :     0.003733  d :     0.035222
      dxz     :     0.006855
      dyz     :     0.004559
      dx2y2   :     0.007103
      dxy     :     0.012973

  1 N s       :     3.609730  s :     3.609730
      pz      :     1.100934  p :     3.679802
      px      :     1.067373
      py      :     1.511495
      dz2     :     0.003752  d :     0.035479
      dxz     :     0.006517
      dyz     :     0.005082
      dx2y2   :     0.007554
      dxy     :     0.012574

  2 C s       :     3.047206  s :     3.047206
      pz      :     0.967659  p :     2.706858
      px      :     0.875905
      py      :     0.863294
      dz2     :     0.005395  d :     0.096074
      dxz     :     0.015144
      dyz     :     0.011111
      dx2y2   :     0.036224
      dxy     :     0.028200

  3 C s       :     3.047912  s :     3.047912
      pz      :     0.983854  p :     2.723445
      px      :     0.810426
      py      :     0.929166
      dz2     :     0.005338  d :     0.095188
      dxz     :     0.015169
      dyz     :     0.009863
      dx2y2   :     0.031009
      dxy     :     0.033809

  4 C s       :     3.065471  s :     3.065471
      pz      :     0.910763  p :     2.682227
      px      :     0.862121
      py      :     0.909342
      dz2     :     0.005420  d :     0.096723
      dxz     :     0.016113
      dyz     :     0.009464
      dx2y2   :     0.030745
      dxy     :     0.034981

  5 C s       :     3.064503  s :     3.064503
      pz      :     0.920720  p :     2.691106
      px      :     0.891331
      py      :     0.879054
      dz2     :     0.005330  d :     0.096453
      dxz     :     0.014419
      dyz     :     0.010755
      dx2y2   :     0.038124
      dxy     :     0.027827

  6 C s       :     3.075848  s :     3.075848
      pz      :     1.009852  p :     2.876755
      px      :     0.983649
      py      :     0.883253
      dz2     :     0.004227  d :     0.070013
      dxz     :     0.010073
      dyz     :     0.010890
      dx2y2   :     0.024133
      dxy     :     0.020690

  7 C s       :     3.083534  s :     3.083534
      pz      :     0.950477  p :     2.829141
      px      :     0.994785
      py      :     0.883879
      dz2     :     0.004157  d :     0.072486
      dxz     :     0.010446
      dyz     :     0.013076
      dx2y2   :     0.020569
      dxy     :     0.024239

  8 C s       :     3.156912  s :     3.156912
      pz      :     0.942690  p :     2.856376
      px      :     0.989952
      py      :     0.923734
      dz2     :     0.003794  d :     0.058364
      dxz     :     0.004556
      dyz     :     0.011787
      dx2y2   :     0.019737
      dxy     :     0.018489

  9 C s       :     3.152167  s :     3.152167
      pz      :     0.977270  p :     2.881331
      px      :     0.948285
      py      :     0.955776
      dz2     :     0.003783  d :     0.056812
      dxz     :     0.006793
      dyz     :     0.008003
      dx2y2   :     0.016278
      dxy     :     0.021954

 10 H s       :     0.831486  s :     0.831486
      pz      :     0.005060  p :     0.025691
      px      :     0.015585
      py      :     0.005047

 11 H s       :     0.834040  s :     0.834040
      pz      :     0.005304  p :     0.025761
      px      :     0.011349
      py      :     0.009108

 12 C s       :     3.129024  s :     3.129024
      pz      :     0.985168  p :     2.924102
      px      :     0.962839
      py      :     0.976095
      dz2     :     0.012822  d :     0.069359
      dxz     :     0.010224
      dyz     :     0.013081
      dx2y2   :     0.013737
      dxy     :     0.019495

 13 C s       :     3.171973  s :     3.171973
      pz      :     0.969907  p :     2.853062
      px      :     0.981877
      py      :     0.901278
      dz2     :     0.006673  d :     0.057660
      dxz     :     0.009981
      dyz     :     0.011715
      dx2y2   :     0.016295
      dxy     :     0.012996

 14 C s       :     3.168322  s :     3.168322
      pz      :     0.939986  p :     2.854790
      px      :     0.918145
      py      :     0.996659
      dz2     :     0.008489  d :     0.057874
      dxz     :     0.009657
[...]
   170a -> 173a  :     0.035561 (c=  0.18857714)
   170a -> 174a  :     0.041825 (c=  0.20451230)
   170a -> 180a  :     0.012495 (c= -0.11178106)
   171a -> 173a  :     0.036600 (c= -0.19131200)
   171a -> 174a  :     0.075297 (c= -0.27440301)
   171a -> 180a  :     0.012774 (c=  0.11302016)

STATE  5:  E=   0.155182 au      4.223 eV    34058.6 cm**-1 <S**2> =   0.000000 Mult 1
   160a -> 172a  :     0.018114 (c= -0.13458659)
   160a -> 173a  :     0.013478 (c=  0.11609341)
   162a -> 172a  :     0.012262 (c= -0.11073544)
   169a -> 174a  :     0.013896 (c= -0.11788000)
   170a -> 172a  :     0.132056 (c= -0.36339498)
   170a -> 173a  :     0.261054 (c=  0.51093479)
   170a -> 174a  :     0.011741 (c= -0.10835513)
   171a -> 172a  :     0.032365 (c= -0.17990364)
   171a -> 173a  :     0.080691 (c= -0.28406087)
   171a -> 174a  :     0.052367 (c=  0.22883846)
   171a -> 175a  :     0.243285 (c=  0.49323923)
   171a -> 176a  :     0.015205 (c= -0.12330771)

STATE  6:  E=   0.169792 au      4.620 eV    37265.0 cm**-1 <S**2> =   0.000000 Mult 1
   168a -> 172a  :     0.072639 (c=  0.26951555)
   168a -> 175a  :     0.012864 (c=  0.11341927)
   170a -> 172a  :     0.110128 (c= -0.33185568)
   170a -> 173a  :     0.045645 (c=  0.21364633)
   171a -> 172a  :     0.195551 (c= -0.44221109)
   171a -> 173a  :     0.033062 (c= -0.18182949)
   171a -> 174a  :     0.066793 (c= -0.25844268)
   171a -> 175a  :     0.267014 (c= -0.51673394)
   171a -> 176a  :     0.053364 (c=  0.23100606)
   171a -> 178a  :     0.013892 (c= -0.11786290)

STATE  7:  E=   0.170248 au      4.633 eV    37365.1 cm**-1 <S**2> =   0.000000 Mult 1
   159a -> 172a  :     0.014002 (c= -0.11832907)
   161a -> 172a  :     0.100718 (c=  0.31736105)
   162a -> 172a  :     0.124308 (c= -0.35257405)
   162a -> 173a  :     0.025002 (c= -0.15812154)
   163a -> 172a  :     0.070938 (c= -0.26634102)
   163a -> 173a  :     0.019585 (c= -0.13994784)
   163a -> 174a  :     0.015641 (c= -0.12506292)
   168a -> 173a  :     0.021855 (c= -0.14783361)
   169a -> 172a  :     0.026586 (c= -0.16305289)
   169a -> 173a  :     0.043935 (c=  0.20960736)
   169a -> 175a  :     0.015297 (c= -0.12368089)
   170a -> 174a  :     0.079202 (c= -0.28142935)
   171a -> 174a  :     0.146524 (c=  0.38278408)
   171a -> 175a  :     0.081519 (c= -0.28551595)

STATE  8:  E=   0.172201 au      4.686 eV    37793.7 cm**-1 <S**2> =   0.000000 Mult 1
   165a -> 175a  :     0.031873 (c=  0.17853068)
   165a -> 176a  :     0.019251 (c= -0.13874839)
   165a -> 182a  :     0.015237 (c= -0.12343840)
   170a -> 178a  :     0.134687 (c= -0.36699674)
   171a -> 178a  :     0.643838 (c= -0.80239530)

STATE  9:  E=   0.174795 au      4.756 eV    38363.1 cm**-1 <S**2> =   0.000000 Mult 1
   161a -> 172a  :     0.146811 (c= -0.38315863)
   161a -> 173a  :     0.016226 (c= -0.12737953)
   162a -> 172a  :     0.128969 (c=  0.35912228)
   162a -> 173a  :     0.025056 (c=  0.15829227)
   163a -> 172a  :     0.033049 (c=  0.18179454)
   163a -> 173a  :     0.021206 (c=  0.14562242)
   165a -> 172a  :     0.010127 (c=  0.10063448)
   167a -> 172a  :     0.040217 (c= -0.20054074)
   168a -> 172a  :     0.022925 (c=  0.15140970)
   169a -> 172a  :     0.047317 (c= -0.21752387)
   169a -> 173a  :     0.035185 (c=  0.18757760)
   169a -> 175a  :     0.013186 (c= -0.11483103)
   170a -> 174a  :     0.069373 (c= -0.26338713)
   170a -> 175a  :     0.016062 (c= -0.12673584)
   171a -> 173a  :     0.040789 (c= -0.20196276)
   171a -> 174a  :     0.090462 (c=  0.30076855)
   171a -> 175a  :     0.015674 (c= -0.12519506)
   171a -> 176a  :     0.043884 (c=  0.20948492)

STATE 10:  E=   0.180631 au      4.915 eV    39644.0 cm**-1 <S**2> =   0.000000 Mult 1
   160a -> 172a  :     0.031985 (c= -0.17884300)
   161a -> 172a  :     0.091787 (c= -0.30296302)
   161a -> 173a  :     0.023418 (c= -0.15302919)
   163a -> 172a  :     0.031316 (c=  0.17696318)
   164a -> 172a  :     0.072681 (c= -0.26959446)
   167a -> 172a  :     0.046649 (c=  0.21598341)
   167a -> 173a  :     0.030381 (c= -0.17430249)
   167a -> 175a  :     0.019157 (c= -0.13840772)
   168a -> 172a  :     0.172285 (c= -0.41507246)
   168a -> 175a  :     0.011963 (c=  0.10937339)
   169a -> 174a  :     0.012957 (c= -0.11382864)
   170a -> 172a  :     0.031069 (c= -0.17626362)
   170a -> 173a  :     0.024065 (c=  0.15512889)
   170a -> 175a  :     0.060957 (c=  0.24689502)
   171a -> 173a  :     0.085935 (c=  0.29314667)
   171a -> 175a  :     0.067537 (c= -0.25987808)
   171a -> 176a  :     0.025141 (c= -0.15855780)


-----------------------------
TD-DFT/TDA-EXCITATION SPECTRA
-----------------------------

Center of mass = ( -3.5402,  1.0752,  9.2283)
Generating CIS transition densities           ... done

----------------------------------------------------------------------------------------------------
                     ABSORPTION SPECTRUM VIA TRANSITION ELECTRIC DIPOLE MOMENTS    
----------------------------------------------------------------------------------------------------
     Transition      Energy     Energy  Wavelength fosc(D2)      D2        DX        DY        DZ   
                      (eV)      (cm-1)    (nm)                 (au**2)    (au)      (au)      (au)  
----------------------------------------------------------------------------------------------------
  0-1A  ->  1-1A    2.838003   22890.0   436.9   1.969161664  28.32112  -1.29851   5.14691  -0.37982
  0-1A  ->  2-1A    3.630666   29283.3   341.5   0.120243268   1.35181   1.01726  -0.56282  -0.01520
  0-1A  ->  3-1A    3.873072   31238.4   320.1   0.015594084   0.16434   0.01678  -0.38777  -0.11701
  0-1A  ->  4-1A    4.039403   32580.0   306.9   0.215153269   2.17407   1.27384   0.73836  -0.07896
  0-1A  ->  5-1A    4.222729   34058.6   293.6   0.471118697   4.55385  -0.97685   1.86360  -0.35583
  0-1A  ->  6-1A    4.620270   37265.0   268.3   0.274393431   2.42409   0.00328  -1.54969   0.15017
  0-1A  ->  7-1A    4.632678   37365.1   267.6   0.166052529   1.46304   1.17832   0.21813   0.16434
  0-1A  ->  8-1A    4.685816   37793.7   264.6   0.036738190   0.32002  -0.22942  -0.33885  -0.39060
  0-1A  ->  9-1A    4.756423   38363.1   260.7   0.553122277   4.74660   2.17760   0.00202  -0.06833
  0-1A  -> 10-1A    4.915228   39644.0   252.2   0.127907546   1.06217   0.90220   0.45974  -0.19195

----------------------------------------------------------------------------------------------------
                     ABSORPTION SPECTRUM VIA TRANSITION VELOCITY DIPOLE MOMENTS    
----------------------------------------------------------------------------------------------------
     Transition      Energy     Energy  Wavelength fosc(P2)      P2        PX        PY        PZ   
                      (eV)      (cm-1)    (nm)                 (au**2)    (au)      (au)      (au)  
----------------------------------------------------------------------------------------------------
  0-1A  ->  1-1A    2.838003   22890.0   436.9   1.098569066   0.17186   0.12427  -0.39369   0.03779
  0-1A  ->  2-1A    3.630666   29283.3   341.5   0.098357470   0.01968  -0.13388   0.04161   0.00551
  0-1A  ->  3-1A    3.873072   31238.4   320.1   0.018092436   0.00386   0.00073   0.04883  -0.03844
  0-1A  ->  4-1A    4.039403   32580.0   306.9   0.046845913   0.01043  -0.07534  -0.06887   0.00346
  0-1A  ->  5-1A    4.222729   34058.6   293.6   0.361364152   0.08412   0.08858  -0.27392   0.03520
  0-1A  ->  6-1A    4.620270   37265.0   268.3   0.186093058   0.04740  -0.02284   0.21483  -0.02686
  0-1A  ->  7-1A    4.632678   37365.1   267.6   0.103172146   0.02635  -0.16168  -0.01380  -0.00394
  0-1A  ->  8-1A    4.685816   37793.7   264.6   0.004057915   0.00105  -0.03230  -0.00161   0.00152
  0-1A  ->  9-1A    4.756423   38363.1   260.7   0.067866997   0.01779  -0.13034   0.02242  -0.01741
  0-1A  -> 10-1A    4.915228   39644.0   252.2   0.006361270   0.00172  -0.01191  -0.03703   0.01450

------------------------------------------------------------------------------------------
                     CD SPECTRUM VIA TRANSITION ELECTRIC DIPOLE MOMENTS    
------------------------------------------------------------------------------------------
     Transition      Energy     Energy  Wavelength    R        MX        MY        MZ   
                      (eV)      (cm-1)    (nm)   (1e40*cgs)   (au)      (au)      (au)  
------------------------------------------------------------------------------------------
  0-1A  ->  1-1A    2.838003   22890.0   436.9    1.23909  -0.10316   0.06890   1.29326
  0-1A  ->  2-1A    3.630666   29283.3   341.5   86.62051  -0.18215  -0.00791   0.19013
  0-1A  ->  3-1A    3.873072   31238.4   320.1  -14.05266   0.02420  -0.02272  -0.17597
  0-1A  ->  4-1A    4.039403   32580.0   306.9    8.56451  -0.01599   0.00527   0.02136
  0-1A  ->  5-1A    4.222729   34058.6   293.6  -17.25077  -0.18830   0.06676   0.76374
  0-1A  ->  6-1A    4.620270   37265.0   268.3   25.37736   0.16568  -0.03589  -0.73251
  0-1A  ->  7-1A    4.632678   37365.1   267.6   21.06696  -0.03834  -0.01146   0.01820
  0-1A  ->  8-1A    4.685816   37793.7   264.6   10.52290   0.06746   0.06709  -0.04068
  0-1A  ->  9-1A    4.756423   38363.1   260.7   27.82809  -0.02548  -0.03760   0.05059
  0-1A  -> 10-1A    4.915228   39644.0   252.2    9.28339  -0.07528  -0.02777  -0.31777

------------------------------------------------------------------------------------------
                     CD SPECTRUM VIA TRANSITION VELOCITY DIPOLE MOMENTS    
------------------------------------------------------------------------------------------
     Transition      Energy     Energy  Wavelength    R        MX        MY        MZ   
                      (eV)      (cm-1)    (nm)   (1e40*cgs)   (au)      (au)      (au)  
------------------------------------------------------------------------------------------
  0-1A  ->  1-1A    2.838003   22890.0   436.9   40.36371  -0.10316   0.06890   1.29326
  0-1A  ->  2-1A    3.630666   29283.3   341.5   88.70756  -0.18215  -0.00791   0.19013
  0-1A  ->  3-1A    3.873072   31238.4   320.1   18.79047   0.02420  -0.02272  -0.17597
  0-1A  ->  4-1A    4.039403   32580.0   306.9    2.90783  -0.01599   0.00527   0.02136
  0-1A  ->  5-1A    4.222729   34058.6   293.6  -24.55233  -0.18830   0.06676   0.76374
  0-1A  ->  6-1A    4.620270   37265.0   268.3   22.70629   0.16568  -0.03589  -0.73251
  0-1A  ->  7-1A    4.632678   37365.1   267.6   17.40525  -0.03834  -0.01146   0.01820
  0-1A  ->  8-1A    4.685816   37793.7   264.6   -6.43128   0.06746   0.06709  -0.04068
  0-1A  ->  9-1A    4.756423   38363.1   260.7    4.30952  -0.02548  -0.03760   0.05059
  0-1A  -> 10-1A    4.915228   39644.0   252.2   -7.00172  -0.07528  -0.02777  -0.31777

Total run time:     2749.910 sec

           *** ORCA-CIS/TD-DFT FINISHED WITHOUT ERROR ***
-----------------------
CIS/TD-DFT TOTAL ENERGY
-----------------------

    E(SCF)  =  -2706.927243528 Eh
    DE(CIS) =      0.104294706 Eh (Root  1)
    ----------------------------- ---------
    E(tot)  =  -2706.822948822 Eh


Maximum memory used throughout the entire CIS-calculation: 585.8 MB
=> NOW LEAVING ORCA_CIS

-------------------------   --------------------
FINAL SINGLE POINT ENERGY     -2706.822948822257
-------------------------   --------------------


------------------------------------------------------------------------------
                              ORCA PROPERTY CALCULATIONS
------------------------------------------------------------------------------

GBWName                                 ... QX-DMA.gbw
Number of atoms                         ...     76
Number of basis functions               ...   1048
Max core memory                         ...   1024 MB

Electric properties:
Dipole moment                           ... YES
Quadrupole moment                       ...  NO
Static polarizability (Dipole/Dipole)   ...  NO
Static polarizability (Dipole/Quad.)    ...  NO
Static polarizability (Quad./Quad.)     ...  NO
Static polarizability (Velocity)        ...  NO

Atomic electric properties:
Dipole moment                           ...  NO
Quadrupole moment                       ...  NO
Static polarizability                   ...  NO

Choice of electric origin               ... Center of mass
Position of electric origin             ...    -3.540160     1.075238     9.228266

General magnetic properties:
Magnetizability                         ...  NO

EPR properties:
g-Tensor (aka g-matrix)                 ...  NO
Zero-Field splitting spin-orbit         ...  NO
Zero-field splitting spin-spin          ...  NO
Hyperfine couplings                     ...  NO (   0 nuclei)
Quadrupole couplings                    ...  NO (   0 nuclei)
Contact density                         ...  NO (   0 nuclei)

NMR properties:
Chemical shifts                         ...  NO (   0 nuclei)
Spin-rotation constants                 ...  NO (   0 nuclei)
Spin-spin couplings                     ...  NO (   0 nuclei,    0 pairs)

Choice of magnetic origin               ... GIAO
Position of magnetic origin             ...     0.000000     0.000000     0.000000

Properties with geometric perturbations:
SCF Hessian                             ...  NO
IR spectrum                             ...  NO
VCD spectrum                            ...  NO
X-ray spectroscopy properties:
SCF XES/XAS/RIXS spectra                ...  NO


-------------
DIPOLE MOMENT
-------------

Method             : SCF
Type of density    : Electron Density
Multiplicity       :   1
Irrep              :   0
Energy             : -2706.9272435282478000 Eh
Relativity type    : 
Basis              : AO
                                X                 Y                 Z
Electronic contribution:    -28.545061896      58.627501529      -6.355144743
Nuclear contribution   :     32.181628433     -62.920602157       6.461004390
                        -----------------------------------------
Total Dipole Moment    :      3.636566536      -4.293100628       0.105859647
                        -----------------------------------------
Magnitude (a.u.)       :      5.627302679
Magnitude (Debye)      :     14.303466695



--------------------
Rotational spectrum 
--------------------
 
Rotational constants in cm-1:             0.003884             0.000768             0.000650 
Rotational constants in MHz :           116.443637            23.020072            19.492747 

Dipole components along the rotational axes: 
x,y,z [a.u.] :    -5.093999     2.373525    -0.289972 
x,y,z [Debye]:   -12.947918     6.033021    -0.737049 

 

Dipole moment calculation done in   0.0 sec 

Maximum memory used throughout the entire PROP-calculation: 120.4 MB

--------------------------------
SUGGESTED CITATIONS FOR THIS RUN
--------------------------------

Below you find a list of papers that are relevant to this ORCA run
We neither can nor want to force you to cite these papers, but we appreciate if you do
You receive ORCA, which is the product of decades of hard work by many enthusiastic individuals, for free
The only thing we kindly ask in return is that you cite our papers,
We deeply appreciate it, if you show your appreciation for ORCA by not just citing the generic ORCA reference.

Please note that relegating all ORCA citations to the supporting information does *not* help us.
SI sections are not indexed - citations you put there will not count into any citation statistics
But we need these citations in order to attract the funding resources that allow us to do what we are doing

Therefore, if you are a happy ORCA user, please consider citing a few of the papers listed below in the main body of your paper

In addition to the list printed below, the program has created the file QX-DMA.bibtex that contains the list in bibtex format
You can import this file easily into all common literature databanks and citation aid programs


List of essential papers. We consider these as the minimum necessary citations

  1. Neese,F.
     Software update: the ORCA program system, version 5.0
     WIRES Comput. Molec. Sci., 2022 12(1)e1606
     doi.org/10.1002/wcms.1606

List of papers to cite with high priority. The work reported in these papers was absolutely
necessary for this run to complete.
Our perspective: the developers of density functionals and basis sets usually get cited in chemistry papers
Good! But without the algorithms to do something with them, the functionals or basis sets would not do anything.
Hence, in our opinion, the algorithm design and method developments papers are equally worthy of getting cited

  1. Neese,F.; Olbrich,G.
     Efficient use of the resolution of the identity approximation in time-dependent density functional calculations with hybrid density functionals
     Chem. Phys. Lett., 2002 362 170-178
     doi.org/10.1016/s0009-2614(02)01053-9
  2. Neese,F.
     An improvement of the resolution of the identity approximation for the formation of the Coulomb matrix
     J. Comp. Chem., 2003 24(14)1740-1747
     doi.org/10.1002/jcc.10318
  3. Neese,F.; Wennmohs,F.; Hansen,A.; Becker,U.
     Efficient, approximate and parallel Hartree-Fock and hybrid DFT calculations. A 'chain-of-spheres' algorithm for the Hartree-Fock exchange
     Chem. Phys., 2009 356(1-3)98-109
     doi.org/10.1016/j.chemphys.2008.10.036
  4. Garcia-Rates,M.; Neese,F.
     Effect of the Solute Cavity on the Solvation Energy and its Derivatives within the Framework of the Gaussian Charge Scheme
     J. Comput. Chem., 2020 41 922-939
     doi.org/10.1002/jcc.26139
  5. Helmich-Paris,B.; de Souza,B.; Neese,F.; Izsák,R.
     An improved chain of spheres for exchange algorithm
     J. Chem. Phys., 2021 155 104109
     doi.org/doi: 10.1063/5.0058766.
  6. Neese,F.
     The SHARK Integral Generation and Digestion System
     J. Comp. Chem., 2022  1-16
     doi.org/10.1002/jcc.26942

List of suggested additional citations. These are papers that are important in the 'surrounding' of 
of this run, or papers that preceded the highly important papers. If you like your results we are grateful for a citation.

  1. Izsak,R.; Neese,F.
     An overlap fitted chain of spheres exchange method
     J. Chem. Phys., 2011 135 144105
     doi.org/10.1063/1.3646921
  2. Izsak,R.; Hansen,A.; Neese,F.
     The resolution of identity and chain of spheres approximations for the LPNO-CCSD singles Fock term
     Molec. Phys., 2012 110 2413-2417
     doi.org/10.1080/00268976.2012.687466
  3. Neese,F.
     The ORCA program system
     WIRES Comput. Molec. Sci., 2012 2(1)73-78
     doi.org/10.1002/wcms.81
  4. Izsak,R.; Neese,F.; Klopper,W.
     Robust fitting techniques in the chain of spheres approximation to the Fock exchange: The role of the complementary space
     J. Chem. Phys., 2013 139 
     doi.org/10.1063/1.4819264
  5. Neese,F.
     Software update: the ORCA program system, version 4.0
     WIRES Comput. Molec. Sci., 2018 8(1)1-6
     doi.org/10.1002/wcms.1327
  6. Neese,F.; Wennmohs,F.; Becker,U.; Riplinger,C.
     The ORCA quantum chemistry program package
     J. Chem. Phys., 2020 152 Art. No. L224108
     doi.org/10.1063/5.0004608

List of optional additional citations

  1. Neese,F.
     Approximate second-order SCF convergence for spin unrestricted wavefunctions
     Chem. Phys. Lett., 2000 325(1-3)93-98
     doi.org/10.1016/s0009-2614(00)00662-x

Timings for individual modules:

Sum of individual times          ...     4167.096 sec (=  69.452 min)
Startup calculation              ...        9.133 sec (=   0.152 min)   0.2 %
SCF iterations                   ...     1407.685 sec (=  23.461 min)  33.8 %
Property integrals               ...        0.243 sec (=   0.004 min)   0.0 %
Property calculations            ...        0.095 sec (=   0.002 min)   0.0 %
CIS module                       ...     2749.940 sec (=  45.832 min)  66.0 %
                             ****ORCA TERMINATED NORMALLY****
TOTAL RUN TIME: 0 days 1 hours 9 minutes 27 seconds 187 msec
