
                                 *****************
                                 * O   R   C   A *
                                 *****************

                                            #,                                       
                                            ###                                      
                                            ####                                     
                                            #####                                    
                                            ######                                   
                                           ########,                                 
                                     ,,################,,,,,                         
                               ,,#################################,,                 
                          ,,##########################################,,             
                       ,#########################################, ''#####,          
                    ,#############################################,,   '####,        
                  ,##################################################,,,,####,       
                ,###########''''           ''''###############################       
              ,#####''   ,,,,##########,,,,          '''####'''          '####       
            ,##' ,,,,###########################,,,                        '##       
           ' ,,###''''                  '''############,,,                           
         ,,##''                                '''############,,,,        ,,,,,,###''
      ,#''                                            '''#######################'''  
     '                                                          ''''####''''         
             ,#######,   #######,   ,#######,      ##                                
            ,#'     '#,  ##    ##  ,#'     '#,    #''#        ,####,   ,####,        
            ##       ##  ##   ,#'  ##            #'  '#       #'       #'  '#        
            ##       ##  #######   ##           ,######,      #####,   #    #        
            '#,     ,#'  ##    ##  '#,     ,#' ,#      #,     #,   #   #,  ,#        
             '#######'   ##     ##  '#######'  #'      '#     '####' # '####'        



                #########################################################
                #                        -***-                          #
                #          Department of theory and spectroscopy        #
                #                                                       #
                #                      Frank Neese                      #
                #                                                       #
                #     Directorship, Architecture, Infrastructure        #
                #                    SHARK, DRIVERS                     #
                #        Core code/Algorithms in most modules           #
                #                                                       #
                #        Max Planck Institute fuer Kohlenforschung      #
                #                Kaiser Wilhelm Platz 1                 #
                #                 D-45470 Muelheim/Ruhr                 #
                #                      Germany                          #
                #                                                       #
                #                  All rights reserved                  #
                #                        -***-                          #
                #########################################################


                         Program Version 6.0.1  -  RELEASE   -


 With contributions from (in alphabetic order):
[Max-Planck-Institut fuer Kohlenforschung]                               
  Daniel Aravena         : Magnetic Suceptibility                        
  Michael Atanasov       : Ab Initio Ligand Field Theory (pilot matlab implementation)
  Alexander A. Auer      : GIAO ZORA, VPT2 properties, NMR spectrum      
  Ute Becker             : All parallelization in ORCA, NUMFREQ, NUMCALC 
  Giovanni Bistoni       : ED, misc. LED, open-shell LED, HFLD           
  Martin Brehm           : Molecular dynamics                            
  Dmytro Bykov           : pre 5.0 version of the SCF Hessian            
  Marcos Casanova-Páez   : Triplet and SCS-CIS(D). UHF-(DLPNO)-IP/EA/STEOM-CCSD. UHF-CVS-IP/STEOM-CCSD   
  Vijay G. Chilkuri      : MRCI spin determinant printing, contributions to CSF-ICE 
  Pauline Colinet        : FMM embedding                                 
  Dipayan Datta          : RHF DLPNO-CCSD density                        
  Achintya Kumar Dutta   : EOM-CC, STEOM-CC                              
  Nicolas Foglia         : Exact transition moments, OPA infrastructure, MCD improvements    
  Dmitry Ganyushin       : Spin-Orbit,Spin-Spin,Magnetic field MRCI      
  Miquel Garcia-Rates    : C-PCM and meta-GGA Hessian, CCSD/C-PCM, Gaussian charge scheme 
  Tiago L. C. Gouveia    : GS-ROHF, GS-ROCIS                             
  Yang Guo               : DLPNO-NEVPT2, F12-NEVPT2, CIM, IAO-localization        
  Andreas Hansen         : Spin unrestricted coupled pair/coupled cluster methods 
  Ingolf Harden          : AUTO-CI MPn and infrastructure                
  Benjamin Helmich-Paris : MC-RPA, TRAH-(SCF,CASSCF), AVAS, COSX integrals, SCF dyn. polar. 
  Lee Huntington         : MR-EOM, pCC                                   
  Robert Izsak           : Overlap fitted RIJCOSX, COSX-SCS-MP3, EOM     
  Riya Kayal             : Wick's Theorem for AUTO-CI, AUTO-CI UHF-CCSDT 
  Emily Kempfer          : AUTO-CI, RHF CISDT and CCSDT                  
  Christian Kollmar      : KDIIS, OOCD, Brueckner-CCSD(T), CCSD density, CASPT2, CASPT2-K, improved NEVPT2 
  Axel Koslowski         : Symmetry handling                             
  Simone Kossmann        : meta-GGA functionals, TD-DFT gradient, OOMP2, (MP2 Hessian; deprecated post 5.0) 
  Lucas Lang             : DCDCAS                                        
  Marvin Lechner         : AUTO-CI (C++ implementation), FIC-MRCC        
  Spencer Leger          : CASSCF response                               
  Dagmar Lenk            : GEPOL surface, SMD, ORCA-2-JSON               
  Dimitrios Liakos       : Extrapolation schemes; Compound Job, initial MDCI parallelization 
  Dimitrios Manganas     : Further ROCIS development; embedding schemes. LFT, Crystal Embedding 
  Dimitrios Pantazis     : SARC Basis sets                               
  Anastasios Papadopoulos: AUTO-CI, single reference methods and gradients 
  Taras Petrenko         : pre 6.0 DFT Hessian and TD-DFT gradient, (ASA, deprecated), ECA, 1-Electron XAS/XES, NRVS 
  Peter Pinski           : DLPNO-MP2, DLPNO-MP2 Gradient                 
  Christoph Reimann      : Effective Core Potentials                     
  Marius Retegan         : Local ZFS, SOC                                
  Christoph Riplinger    : Optimizer, TS searches, QM/MM, DLPNO-CCSD(T), (RO)-DLPNO pert. Triples 
  Michael Roemelt        : Original ROCIS implementation                 
  Masaaki Saitow         : Open-shell DLPNO-CCSD energy and density      
  Barbara Sandhoefer     : DKH picture change effects                    
  Kantharuban Sivalingam : CASSCF convergence/infrastructure, NEVPT2 and variants, FIC-MRCI 
  Bernardo de Souza      : ESD, SOC TD-DFT                               
  Georgi L. Stoychev     : AutoAux, RI-MP2 NMR, DLPNO-MP2 response, X2C  
  Van Anh Tran           : RI-MP2 g-tensors                              
  Willem Van den Heuvel  : Paramagnetic NMR                              
  Zikuan Wang            : NOTCH, Electric field optimization            
  Frank Wennmohs         : Technical directorship and infrastructure     
  Hang Xu                : AUTO-CI-Response properties                   
                                                                         
[FACCTs GmbH]                                                            
  Markus Bursch, Miquel Garcia-Rates, Christoph Riplinger, Bernardo de Souza, Georgi L. Stoychev 
                                                                 
  APM, Basis sets (HGBS, AHGBS, def-TZVP (Ac-Lr), def2-XVPD (La-Lu)), CI-OPT, improved COSX, DLPNO-Multilevel,           
  DOCKER, DRACO, updates on ESD, GOAT, IRC, LR-CPCM, MBIS, meta-GGA TD-DFT gradient, ML-optimized integration grids, 
  MM, NACMEs, nearIR, NEB, NEB-TS, NL-DFT gradient (VV10), 2- and 3-layer-ONIOM, interface openCOSMO-RS, QMMM,   
  Crystal-QMMM, SF, symmetry and pop. for TD-DFT, r2SCAN hybrids, SOLVATOR                                   
                                                                         
[Other institutions]                                                     
  V. Asgeirsson          : NEB                                           
  Christoph Bannwarth    : sTDA-DFT, sTD-DFT, PBEh-3c, B97-3c, D3        
  Sebastian Ehlert       : rSCAN, r2SCAN, r2SCAN-3c, D4, dhf basis sets  
  Marvin Friede          : D4 for Fr, Ra, Ac-Lr                          
  Lars Goerigk           : TD-DFT with DH, B97 family of functionals     
  Stefan Grimme          : VdW corrections, initial TS optimization, DFT functionals, gCP, sTDA/sTD-DF 
  Waldemar Hujo          : DFT-NL                                        
  H. Jonsson             : NEB                                           
  Holger Kruse           : gCP                                           
  Marcel Mueller         : wB97X-3c, vDZP basis set                      
  Hagen Neugebauer       : wr2SCAN                                       
  Tobias Risthaus        : range-separated hybrid DFT                    
  Lukas Wittmann         : regularized MP2, r2SCAN double-hybrids, wr2SCAN        
                                                                         
We gratefully acknowledge several colleagues who have allowed us to      
interface, adapt or use parts of their codes:                            
  Ed Valeev, F. Pavosevic, A. Kumar             : LibInt (2-el integral package), F12 methods 
  Garnet Chan, S. Sharma, J. Yang, R. Olivares  : DMRG                   
  Ulf Ekstrom                                   : XCFun DFT Library      
  Mihaly Kallay                                 : mrcc  (arbitrary order and MRCC methods)
  Frank Weinhold                                : gennbo (NPA and NBO analysis)           
  Simon Mueller                                 : openCOSMO-RS                            
  Christopher J. Cramer and Donald G. Truhlar   : smd solvation model                     
  S Lehtola, MJT Oliveira, MAL Marques          : LibXC Library                           
  Liviu Ungur et al                             : ANISO software                          


 Your calculation uses the libint2 library for the computation of 2-el integrals
 For citations please refer to: http://libint.valeyev.net

 Your ORCA version has been built with support for libXC version: 6.2.2
 For citations please refer to: https://libxc.gitlab.io

 This ORCA versions uses:
   CBLAS   interface :  Fast vector & matrix operations
   LAPACKE interface :  Fast linear algebra routines
   SCALAPACK package :  Parallel linear algebra routines
   Shared memory     :  Shared parallel matrices
   BLAS/LAPACK       :  OpenBLAS 0.3.27  USE64BITINT DYNAMIC_ARCH NO_AFFINITY Cooperlake SINGLE_THREADED
        Core in use  :  Cooperlake
   Copyright (c) 2011-2014, The OpenBLAS Project


Warning: RI is on but no J-basis has been assigned. Assigning Def2/J (nothing to worry about!)
================================================================================

----- Orbital basis set information -----
Your calculation utilizes the basis: 6-311G(d,p)
   H, Li - Ne  : R. Krishnan, J. S. Binkley, R. Seeger and J. A. Pople, J. Chem. Phys. 72, 650 (1980).
   Na - Ar     : A. D. McLean and G. S. Chandler J. Chem. Phys. 72, 5639, (1980).
   K  - Ca     : J.-P. Blaudeau, M. P. McGrath, L. A. Curtiss and L. Radom, J. Chem. Phys. 107, 5016 (1997).
   Ga - Kr     : L. A. Curtiss, M. P. McGrath, J.-P. Blandeau, N. E. Davis, R. C. Binning and L. Radom, J. Chem. Phys. 103, 6104 (1995).
   Pol./Diff.
   H, Li - Cl  : T. Clark, J. Chandrasekhar and P. v. R. Schleyer, J. Comp. Chem. 4, 294 (1983).
   H - Ne      : M. J. Frisch, J. A. Pople and J. S. Binkley, J. Chem. Phys. 80, 3265 (1984).

----- AuxJ basis set information -----
Your calculation utilizes the auxiliary basis: def2/J
   F. Weigend, Phys. Chem. Chem. Phys. 8, 1057 (2006).

================================================================================
                                        WARNINGS
                       Please study these warnings very carefully!
================================================================================

INFO   : Checking CIS options ...

WARNING: CIS/ROCIS methods need fully converged wavefunctions
  ===> : Setting SCFConvForced true
         You can overwrite this default with %scf ConvForced false 


================================================================================
                                       INPUT FILE
================================================================================
NAME = QX-DMA.inp
|  1> ! B3LYP 6-311G(d,p) TightSCF CPCM(THF)
|  2> 
|  3> %tddft
|  4>   nroots 10      
|  5> end
|  6> 
|  7> * xyz 0 1
|  8>    N       -1.90799        2.40480        4.72204
|  9>    N       -1.34517       -0.28641        4.90561
| 10>    C       -2.92291        1.51690        4.80893
| 11>    C       -2.63140        0.11985        4.85341
| 12>    C       -0.65455        1.99376        4.71807
| 13>    C       -0.35979        0.59043        4.88065
| 14>    C       -4.27237        1.99242        4.81461
| 15>    C       -3.68201       -0.85869        4.87842
| 16>    C       -5.26518        1.01407        4.84736
| 17>    C       -4.98268       -0.35188        4.88459
| 18>    H       -6.30629        1.31013        4.83224
| 19>    H       -5.81976       -1.03622        4.93053
| 20>    C        0.37801        3.04531        4.50781
| 21>    C        0.26327        4.26956        5.18024
| 22>    C        1.42994        2.86651        3.59979
| 23>    C        1.19229        5.28312        4.96611
| 24>    H       -0.55822        4.41590        5.87076
| 25>    C        2.34700        3.88844        3.37402
| 26>    H        1.52484        1.93263        3.05904
| 27>    C        2.23618        5.09602        4.06129
| 28>    H        1.09835        6.22079        5.50265
| 29>    H        3.14887        3.74087        2.65925
| 30>    H        2.95693        5.88788        3.88983
| 31>    C        1.01212        0.04003        5.05708
| 32>    C        1.93655        0.63967        5.92282
| 33>    C        1.37075       -1.14336        4.39730
| 34>    C        3.19189        0.07168        6.11761
| 35>    H        1.67069        1.54455        6.45570
| 36>    C        2.63277       -1.69989        4.58099
| 37>    H        0.65167       -1.62080        3.74331
| 38>    C        3.54714       -1.09442        5.44178
| 39>    H        3.89245        0.54106        6.79922
| 40>    H        2.89984       -2.60998        4.05532
| 41>    H        4.52911       -1.53066        5.58841
| 42>    C       -4.62761        3.40731        4.78084
| 43>    C       -5.89716        3.93400        5.01180
| 44>    S       -3.51851        4.69046        4.38106
| 45>    C       -5.99079        5.32032        4.85630
| 46>    H       -6.74095        3.32449        5.30380
| 47>    C       -4.78312        5.90915        4.49935
| 48>    H       -6.90480        5.87616        5.00659
| 49>    C       -3.44843       -2.29581        4.89383
| 50>    C       -4.40160       -3.27814        4.68503
| 51>    S       -1.89683       -3.05407        5.23279
| 52>    C       -3.92161       -4.59481        4.81639
| 53>    H       -5.43111       -3.05681        4.43725
| 54>    C       -2.57940       -4.66217        5.13162
| 55>    H       -4.55010       -5.46892        4.70717
| 56>    C       -1.75539       -5.85180        5.33515
| 57>    C       -2.10754       -7.08459        4.75972
| 58>    C       -1.34864       -8.22707        4.95006
| 59>    H       -2.98801       -7.14783        4.13013
| 60>    C       -0.16706       -8.20114        5.72677
| 61>    H       -1.67285       -9.14495        4.47940
| 62>    N        0.61190       -9.33077        5.89629
| 63>    C       -0.58828       -5.83092        6.11661
| 64>    H       -0.28796       -4.91004        6.60473
| 65>    C        0.18482       -6.96376        6.31263
| 66>    H        1.06332       -6.88506        6.93801
| 67>    C       -5.19286        8.39622        4.26125
| 68>    C       -6.58540        8.38303        4.55703
| 69>    N       -7.71395        8.33049        4.80359
| 70>    C       -4.62373        9.73037        3.96292
| 71>    O       -5.25238       10.76035        3.95560
| 72>    O       -3.29151        9.68913        3.69029
| 73>    H       -3.03267       10.60359        3.50833
| 74>    C       -4.42138        7.26531        4.24819
| 75>    H       -3.37801        7.43528        4.00290
| 76>    C        0.12351      -10.62122        5.43768
| 77>    H       -0.80235      -10.92860        5.94504
| 78>    H       -0.06728      -10.61196        4.35986
| 79>    H        0.88379      -11.37747        5.62897
| 80>    C        1.72866       -9.30557        6.82685
| 81>    H        2.45257       -8.53144        6.55340
| 82>    H        1.41274       -9.12553        7.86469
| 83>    H        2.24403      -10.26447        6.78916
| 84> *
| 85> 
| 86> 
| 87>                          ****END OF INPUT****
================================================================================

                       ****************************
                       * Single Point Calculation *
                       ****************************

---------------------------------
CARTESIAN COORDINATES (ANGSTROEM)
---------------------------------
  N     -1.907990    2.404800    4.722040
  N     -1.345170   -0.286410    4.905610
  C     -2.922910    1.516900    4.808930
  C     -2.631400    0.119850    4.853410
  C     -0.654550    1.993760    4.718070
  C     -0.359790    0.590430    4.880650
  C     -4.272370    1.992420    4.814610
  C     -3.682010   -0.858690    4.878420
  C     -5.265180    1.014070    4.847360
  C     -4.982680   -0.351880    4.884590
  H     -6.306290    1.310130    4.832240
  H     -5.819760   -1.036220    4.930530
  C      0.378010    3.045310    4.507810
  C      0.263270    4.269560    5.180240
  C      1.429940    2.866510    3.599790
  C      1.192290    5.283120    4.966110
  H     -0.558220    4.415900    5.870760
  C      2.347000    3.888440    3.374020
  H      1.524840    1.932630    3.059040
  C      2.236180    5.096020    4.061290
  H      1.098350    6.220790    5.502650
  H      3.148870    3.740870    2.659250
  H      2.956930    5.887880    3.889830
  C      1.012120    0.040030    5.057080
  C      1.936550    0.639670    5.922820
  C      1.370750   -1.143360    4.397300
  C      3.191890    0.071680    6.117610
  H      1.670690    1.544550    6.455700
  C      2.632770   -1.699890    4.580990
  H      0.651670   -1.620800    3.743310
  C      3.547140   -1.094420    5.441780
  H      3.892450    0.541060    6.799220
  H      2.899840   -2.609980    4.055320
  H      4.529110   -1.530660    5.588410
  C     -4.627610    3.407310    4.780840
  C     -5.897160    3.934000    5.011800
  S     -3.518510    4.690460    4.381060
  C     -5.990790    5.320320    4.856300
  H     -6.740950    3.324490    5.303800
  C     -4.783120    5.909150    4.499350
  H     -6.904800    5.876160    5.006590
  C     -3.448430   -2.295810    4.893830
  C     -4.401600   -3.278140    4.685030
  S     -1.896830   -3.054070    5.232790
  C     -3.921610   -4.594810    4.816390
  H     -5.431110   -3.056810    4.437250
  C     -2.579400   -4.662170    5.131620
  H     -4.550100   -5.468920    4.707170
  C     -1.755390   -5.851800    5.335150
  C     -2.107540   -7.084590    4.759720
  C     -1.348640   -8.227070    4.950060
  H     -2.988010   -7.147830    4.130130
  C     -0.167060   -8.201140    5.726770
  H     -1.672850   -9.144950    4.479400
  N      0.611900   -9.330770    5.896290
  C     -0.588280   -5.830920    6.116610
  H     -0.287960   -4.910040    6.604730
  C      0.184820   -6.963760    6.312630
  H      1.063320   -6.885060    6.938010
  C     -5.192860    8.396220    4.261250
  C     -6.585400    8.383030    4.557030
  N     -7.713950    8.330490    4.803590
  C     -4.623730    9.730370    3.962920
  O     -5.252380   10.760350    3.955600
  O     -3.291510    9.689130    3.690290
  H     -3.032670   10.603590    3.508330
  C     -4.421380    7.265310    4.248190
  H     -3.378010    7.435280    4.002900
  C      0.123510  -10.621220    5.437680
  H     -0.802350  -10.928600    5.945040
  H     -0.067280  -10.611960    4.359860
  H      0.883790  -11.377470    5.628970
  C      1.728660   -9.305570    6.826850
  H      2.452570   -8.531440    6.553400
  H      1.412740   -9.125530    7.864690
  H      2.244030  -10.264470    6.789160

----------------------------
CARTESIAN COORDINATES (A.U.)
----------------------------
  NO LB      ZA    FRAG     MASS         X           Y           Z
   0 N     7.0000    0    14.007   -3.605579    4.544413    8.923362
   1 N     7.0000    0    14.007   -2.542003   -0.541236    9.270259
   2 C     6.0000    0    12.011   -5.523499    2.866526    9.087561
   3 C     6.0000    0    12.011   -4.972625    0.226484    9.171616
   4 C     6.0000    0    12.011   -1.236920    3.767660    8.915860
   5 C     6.0000    0    12.011   -0.679905    1.115751    9.223092
   6 C     6.0000    0    12.011   -8.073609    3.765128    9.098294
   7 C     6.0000    0    12.011   -6.957991   -1.622689    9.218878
   8 C     6.0000    0    12.011   -9.949748    1.916315    9.160183
   9 C     6.0000    0    12.011   -9.415901   -0.664957    9.230537
  10 H     1.0000    0     1.008  -11.917161    2.475787    9.131610
  11 H     1.0000    0     1.008  -10.997753   -1.958172    9.317351
  12 C     6.0000    0    12.011    0.714335    5.754802    8.518526
  13 C     6.0000    0    12.011    0.497508    8.068299    9.789235
  14 C     6.0000    0    12.011    2.702195    5.416919    6.802617
  15 C     6.0000    0    12.011    2.253102    9.983650    9.384588
  16 H     1.0000    0     1.008   -1.054883    8.344842   11.094129
  17 C     6.0000    0    12.011    4.435187    7.348087    6.375974
  18 H     1.0000    0     1.008    2.881530    3.652141    5.780748
  19 C     6.0000    0    12.011    4.225768    9.630082    7.674726
  20 H     1.0000    0     1.008    2.075581   11.755589   10.398502
  21 H     1.0000    0     1.008    5.950502    7.069220    5.025254
  22 H     1.0000    0     1.008    5.587788   11.126481    7.350713
  23 C     6.0000    0    12.011    1.912630    0.075646    9.556496
  24 C     6.0000    0    12.011    3.659549    1.208801   11.192508
  25 C     6.0000    0    12.011    2.590342   -2.160637    8.309693
  26 C     6.0000    0    12.011    6.031798    0.135456   11.560607
  27 H     1.0000    0     1.008    3.157147    2.918777   12.199505
  28 C     6.0000    0    12.011    4.975214   -3.212327    8.656817
  29 H     1.0000    0     1.008    1.231478   -3.062868    7.073831
  30 C     6.0000    0    12.011    6.703123   -2.068154   10.283474
  31 H     1.0000    0     1.008    7.355664    1.022455   12.848664
  32 H     1.0000    0     1.008    5.479903   -4.932147    7.663444
  33 H     1.0000    0     1.008    8.558778   -2.892528   10.560564
  34 C     6.0000    0    12.011   -8.744916    6.438883    9.034478
  35 C     6.0000    0    12.011  -11.144017    7.434183    9.470929
  36 S    16.0000    0    32.060   -6.649020    8.863685    8.279004
  37 C     6.0000    0    12.011  -11.320952   10.053948    9.177077
  38 H     1.0000    0     1.008  -12.738549    6.282376   10.022729
  39 C     6.0000    0    12.011   -9.038787   11.166675    8.502539
  40 H     1.0000    0     1.008  -13.048181   11.104333    9.461084
  41 C     6.0000    0    12.011   -6.516588   -4.338452    9.247998
  42 C     6.0000    0    12.011   -8.317819   -6.194787    8.853424
  43 S    16.0000    0    32.060   -3.584489   -5.771356    9.888540
  44 C     6.0000    0    12.011   -7.410769   -8.682933    9.101658
  45 H     1.0000    0     1.008  -10.263311   -5.776534    8.385187
  46 C     6.0000    0    12.011   -4.874360   -8.810224    9.697356
  47 H     1.0000    0     1.008   -8.598443  -10.334761    8.895262
  48 C     6.0000    0    12.011   -3.317206  -11.058299   10.081972
  49 C     6.0000    0    12.011   -3.982673  -13.387935    8.994567
  50 C     6.0000    0    12.011   -2.548560  -15.546909    9.354258
  51 H     1.0000    0     1.008   -5.646521  -13.507441    7.804815
  52 C     6.0000    0    12.011   -0.315698  -15.497909   10.822027
  53 H     1.0000    0     1.008   -3.161228  -17.281451    8.464839
  54 N     7.0000    0    14.007    1.156323  -17.632600   11.142373
  55 C     6.0000    0    12.011   -1.111688  -11.018842   11.558718
  56 H     1.0000    0     1.008   -0.544166   -9.278631   12.481131
  57 C     6.0000    0    12.011    0.349259  -13.159599   11.929142
  58 H     1.0000    0     1.008    2.009384  -13.010878   13.110939
  59 C     6.0000    0    12.011   -9.813083   15.866556    8.052595
  60 C     6.0000    0    12.011  -12.444602   15.841631    8.611539
  61 N     7.0000    0    14.007  -14.577253   15.742345    9.077470
  62 C     6.0000    0    12.011   -8.737583   18.387734    7.488833
  63 O     8.0000    0    15.999   -9.925560   20.334115    7.475001
  64 O     8.0000    0    15.999   -6.220052   18.309802    6.973637
  65 H     1.0000    0     1.008   -5.730916   20.037881    6.629783
  66 C     6.0000    0    12.011   -8.355197   13.729446    8.027916
  67 H     1.0000    0     1.008   -6.383514   14.050643    7.564385
  68 C     6.0000    0    12.011    0.233400  -20.071197   10.275726
  69 H     1.0000    0     1.008   -1.516222  -20.652061   11.234497
  70 H     1.0000    0     1.008   -0.127141  -20.053698    8.238941
  71 H     1.0000    0     1.008    1.670121  -21.500302   10.637212
  72 C     6.0000    0    12.011    3.266694  -17.584979   12.900877
  73 H     1.0000    0     1.008    4.634686  -16.122085   12.384131
  74 H     1.0000    0     1.008    2.669692  -17.244753   14.862110
  75 H     1.0000    0     1.008    4.240602  -19.397037   12.829653

--------------------------------
INTERNAL COORDINATES (ANGSTROEM)
--------------------------------
 N      0   0   0     0.000000000000     0.00000000     0.00000000
 N      1   0   0     2.755553585289     0.00000000     0.00000000
 C      1   2   0     1.351287862929    60.48768290     0.00000000
 C      2   1   3     1.349873935040    60.58516195     2.47035232
 C      1   2   3     1.319121478902    60.11874009   180.32010199
 C      2   1   3     1.319259311735    60.14356013   183.02117915
 C      3   1   2     1.430801811713   119.35740922   179.50948284
 C      4   2   1     1.435948259444   119.43176401   179.26184299
 C      7   3   1     1.394242798475   116.00697710   177.28400284
 C      9   7   3     1.395353620198   122.91412055     0.54655031
 H      9   7   3     1.082492572769   119.51243179   181.27849835
 H     10   9   7     1.082189745655   117.61777582   178.66760215
 C      5   1   2     1.488672839713   116.06528449   175.54504218
 C     13   5   1     1.401469027485   119.50446576    43.42144329
 C     13   5   1     1.401080470673   121.47688257   226.67057724
 C     14  13   5     1.391486144703   120.51720522   182.10009269
 H     14  13   5     1.083087755494   119.07950896     2.19408460
 C     15  13   5     1.391514305137   120.41329571   176.95417106
 H     15  13   5     1.083304401773   119.95290853   357.76098347
 C     18  15  13     1.393868925581   120.25528196     0.71977002
 H     16  14  13     1.084400721182   119.72673942   180.76985323
 H     18  15  13     1.084282506868   119.62941822   180.76982390
 H     20  18  15     1.084399074926   120.12115985   179.48421402
 C      6   2   1     1.488692296279   116.12626470   175.65887396
 C     24   6   2     1.401301074752   121.53054096   225.62655109
 C     24   6   2     1.401548078876   119.48460692    42.31731052
 C     25  24   6     1.391558227240   120.45997889   177.03437027
 H     25  24   6     1.083259178775   119.96438461   357.84180865
 C     26  24   6     1.391460433286   120.50663653   182.08292262
 H     26  24   6     1.082925629995   119.11975435     1.96889880
 C     27  25  24     1.393821352039   120.23413472     0.63505860
 H     27  25  24     1.084294282056   119.61398524   180.68918385
 H     29  26  24     1.084398055098   119.67306026   180.67046437
 H     31  27  25     1.084467968822   120.11693473   179.46627584
 C      7   3   1     1.459194840520   123.48863157   357.63803661
 C     35   7   3     1.393736732744   125.75679546   191.61316838
 S     35   7   3     1.742527124868   124.35866249    14.04814030
 C     36  35   7     1.398152341235   114.66231074   182.98801293
 H     36  35   7     1.081086492469   122.86481759     3.94075864
 C     38  36  35     1.390180168288   112.97696670   359.90058787
 H     38  36  35     1.080258982744   123.46150279   180.40714961
 C      8   4   2     1.456060087668   123.73886462   356.95370154
 C     42   8   4     1.384594784693   126.03024086   191.99205054
 S     42   8   4     1.759918938247   124.66059622    13.90673693
 C     43  42   8     1.407574416718   114.50841219   182.84546596
 H     43  42   8     1.081791448201   122.99232664     3.07287338
 C     45  43  42     1.380374951453   113.48666349     0.00000000
 H     45  43  42     1.082126138951   123.23888520   178.44789372
 C     47  45  43     1.461381701644   128.30125005   180.31840965
 C     49  47  45     1.405311528274   121.05012561    24.03212332
 C     50  49  47     1.384709022141   122.01627935   180.63811194
 H     50  49  47     1.084255637108   119.49956798     1.87113786
 C     51  50  49     1.414242583647   121.21559024   359.29708897
 H     51  50  49     1.081266227208   118.43950777   180.04255446
 N     53  51  50     1.382598874909   121.53859839   181.48368815
 C     49  47  45     1.404728250624   122.26630255   204.60842341
 H     56  49  47     1.084653498220   119.53901341     1.09888266
 C     56  49  47     1.385436363028   122.01778677   179.60915072
 H     58  56  49     1.081228969460   118.40557294   180.95273225
 C     40  38  36     2.531816672372   107.43569540   179.64442128
 C     60  40  38     1.423666897873    97.44986402   358.94869543
 N     61  60  40     1.156363864750   177.90021856     1.82439361
 C     60  40  38     1.480832863054   147.32749201   179.22759090
 O     63  60  40     1.206695158398   124.75050383   179.55377552
 O     63  60  40     1.360455064638   112.91815681   359.55477897
 H     65  63  60     0.967649047331   105.72247839   179.70840538
 C     60  40  38     1.369054192536    25.61062304   178.73824448
 H     67  60  40     1.085208708913   114.49186739   179.61227350
 C     55  53  51     1.453997636415   119.81598583   350.92648753
 H     69  55  53     1.099596914146   112.66768316   298.42042434
 H     69  55  53     1.094615240210   111.19920101    59.90320604
 H     69  55  53     1.089280315162   109.04682700   178.25090967
 C     55  53  51     1.453867205490   119.80717181   187.26645206
 H     73  55  53     1.094576560822   111.12286443   300.84476417
 H     73  55  53     1.099696191500   112.71986236    62.31269121
 H     73  55  53     1.089273144349   109.02750414   182.51119735

---------------------------
INTERNAL COORDINATES (A.U.)
---------------------------
 N      0   0   0     0.000000000000     0.00000000     0.00000000
 N      1   0   0     5.207241623541     0.00000000     0.00000000
 C      1   2   0     2.553563989028    60.48768290     0.00000000
 C      2   1   3     2.550892052544    60.58516195     2.47035232
 C      1   2   3     2.492778332498    60.11874009   180.32010199
 C      2   1   3     2.493038798805    60.14356013   183.02117915
 C      3   1   2     2.703823576055   119.35740922   179.50948284
 C      4   2   1     2.713548952830   119.43176401   179.26184299
 C      7   3   1     2.634737053310   116.00697710   177.28400284
 C      9   7   3     2.636836202150   122.91412055     0.54655031
 H      9   7   3     2.045614504537   119.51243179   181.27849835
 H     10   9   7     2.045042244225   117.61777582   178.66760215
 C      5   1   2     2.813183970065   116.06528449   175.54504218
 C     13   5   1     2.648392647120   119.50446576    43.42144329
 C     13   5   1     2.647658381157   121.47688257   226.67057724
 C     14  13   5     2.629527732634   120.51720522   182.10009269
 H     14  13   5     2.046739236886   119.07950896     2.19408460
 C     15  13   5     2.629580948142   120.41329571   176.95417106
 H     15  13   5     2.047148639022   119.95290853   357.76098347
 C     18  15  13     2.634030535931   120.25528196     0.71977002
 H     16  14  13     2.049220382461   119.72673942   180.76985323
 H     18  15  13     2.048996989782   119.62941822   180.76982390
 H     20  18  15     2.049217271487   120.12115985   179.48421402
 C      6   2   1     2.813220737645   116.12626470   175.65887396
 C     24   6   2     2.648075262450   121.53054096   225.62655109
 C     24   6   2     2.648542032598   119.48460692    42.31731052
 C     25  24   6     2.629663948889   120.45997889   177.03437027
 H     25  24   6     2.047063179941   119.96438461   357.84180865
 C     26  24   6     2.629479145098   120.50663653   182.08292262
 H     26  24   6     2.046432864095   119.11975435     1.96889880
 C     27  25  24     2.633940634966   120.23413472     0.63505860
 H     27  25  24     2.049019241663   119.61398524   180.68918385
 H     29  26  24     2.049215344292   119.67306026   180.67046437
 H     31  27  25     2.049347462083   120.11693473   179.46627584
 C      7   3   1     2.757478624614   123.48863157   357.63803661
 C     35   7   3     2.633780727672   125.75679546   191.61316838
 S     35   7   3     3.292899046929   124.35866249    14.04814030
 C     36  35   7     2.642125018434   114.66231074   182.98801293
 H     36  35   7     2.042957397849   122.86481759     3.94075864
 C     38  36  35     2.627059794872   112.97696670   359.90058787
 H     38  36  35     2.041393631095   123.46150279   180.40714961
 C      8   4   2     2.751554800226   123.73886462   356.95370154
 C     42   8   4     2.616504949526   126.03024086   191.99205054
 S     42   8   4     3.325764811188   124.66059622    13.90673693
 C     43  42   8     2.659930160712   114.50841219   182.84546596
 H     43  42   8     2.044289571117   122.99232664     3.07287338
 C     45  43  42     2.608530620372   113.48666349     0.00000000
 H     45  43  42     2.044922044974   123.23888520   178.44789372
 C     47  45  43     2.761611193231   128.30125005   180.31840965
 C     49  47  45     2.655653921280   121.05012561    24.03212332
 C     50  49  47     2.616720827017   122.01627935   180.63811194
 H     50  49  47     2.048946213294   119.49956798     1.87113786
 C     51  50  49     2.672531170022   121.21559024   359.29708897
 H     51  50  49     2.043297047281   118.43950777   180.04255446
 N     53  51  50     2.612733226646   121.53859839   181.48368815
 C     49  47  45     2.654551686261   122.26630255   204.60842341
 H     56  49  47     2.049698061835   119.53901341     1.09888266
 C     56  49  47     2.618095302099   122.01778677   179.60915072
 H     58  56  49     2.043226640342   118.40557294   180.95273225
 C     40  38  36     4.784440132079   107.43569540   179.64442128
 C     60  40  38     2.690340542910    97.44986402   358.94869543
 N     61  60  40     2.185211015541   177.90021856     1.82439361
 C     60  40  38     2.798368561282   147.32749201   179.22759090
 O     63  60  40     2.280323376500   124.75050383   179.55377552
 O     63  60  40     2.570887489673   112.91815681   359.55477897
 H     65  63  60     1.828591693205   105.72247839   179.70840538
 C     60  40  38     2.587137486389    25.61062304   178.73824448
 H     67  60  40     2.050747257991   114.49186739   179.61227350
 C     55  53  51     2.747657332193   119.81598583   350.92648753
 H     69  55  53     2.077937025441   112.66768316   298.42042434
 H     69  55  53     2.068523026013   111.19920101    59.90320604
 H     69  55  53     2.058441478728   109.04682700   178.25090967
 C     55  53  51     2.747410853466   119.80717181   187.26645206
 H     73  55  53     2.068449932562   111.12286443   300.84476417
 H     73  55  53     2.078124632452   112.71986236    62.31269121
 H     73  55  53     2.058427927855   109.02750414   182.51119735

---------------------
BASIS SET INFORMATION
---------------------
There are 5 groups of distinct atoms

 Group   1 Type N   : 11s5p1d contracted to 4s3p1d pattern {6311/311/1}
 Group   2 Type C   : 11s5p1d contracted to 4s3p1d pattern {6311/311/1}
 Group   3 Type H   : 5s1p contracted to 3s1p pattern {311/1}
 Group   4 Type S   : 13s9p1d contracted to 6s5p1d pattern {631111/42111/1}
 Group   5 Type O   : 11s5p1d contracted to 4s3p1d pattern {6311/311/1}

Atom   0N    basis set group =>   1
Atom   1N    basis set group =>   1
Atom   2C    basis set group =>   2
Atom   3C    basis set group =>   2
Atom   4C    basis set group =>   2
Atom   5C    basis set group =>   2
Atom   6C    basis set group =>   2
Atom   7C    basis set group =>   2
Atom   8C    basis set group =>   2
Atom   9C    basis set group =>   2
Atom  10H    basis set group =>   3
Atom  11H    basis set group =>   3
Atom  12C    basis set group =>   2
Atom  13C    basis set group =>   2
Atom  14C    basis set group =>   2
Atom  15C    basis set group =>   2
Atom  16H    basis set group =>   3
Atom  17C    basis set group =>   2
Atom  18H    basis set group =>   3
Atom  19C    basis set group =>   2
Atom  20H    basis set group =>   3
Atom  21H    basis set group =>   3
Atom  22H    basis set group =>   3
Atom  23C    basis set group =>   2
Atom  24C    basis set group =>   2
Atom  25C    basis set group =>   2
Atom  26C    basis set group =>   2
Atom  27H    basis set group =>   3
Atom  28C    basis set group =>   2
Atom  29H    basis set group =>   3
Atom  30C    basis set group =>   2
Atom  31H    basis set group =>   3
Atom  32H    basis set group =>   3
Atom  33H    basis set group =>   3
Atom  34C    basis set group =>   2
Atom  35C    basis set group =>   2
Atom  36S    basis set group =>   4
Atom  37C    basis set group =>   2
Atom  38H    basis set group =>   3
Atom  39C    basis set group =>   2
Atom  40H    basis set group =>   3
Atom  41C    basis set group =>   2
Atom  42C    basis set group =>   2
Atom  43S    basis set group =>   4
Atom  44C    basis set group =>   2
Atom  45H    basis set group =>   3
Atom  46C    basis set group =>   2
Atom  47H    basis set group =>   3
Atom  48C    basis set group =>   2
Atom  49C    basis set group =>   2
Atom  50C    basis set group =>   2
Atom  51H    basis set group =>   3
Atom  52C    basis set group =>   2
Atom  53H    basis set group =>   3
Atom  54N    basis set group =>   1
Atom  55C    basis set group =>   2
Atom  56H    basis set group =>   3
Atom  57C    basis set group =>   2
Atom  58H    basis set group =>   3
Atom  59C    basis set group =>   2
Atom  60C    basis set group =>   2
Atom  61N    basis set group =>   1
Atom  62C    basis set group =>   2
Atom  63O    basis set group =>   5
Atom  64O    basis set group =>   5
Atom  65H    basis set group =>   3
Atom  66C    basis set group =>   2
Atom  67H    basis set group =>   3
Atom  68C    basis set group =>   2
Atom  69H    basis set group =>   3
Atom  70H    basis set group =>   3
Atom  71H    basis set group =>   3
Atom  72C    basis set group =>   2
Atom  73H    basis set group =>   3
Atom  74H    basis set group =>   3
Atom  75H    basis set group =>   3
---------------------------------
AUXILIARY/J BASIS SET INFORMATION
---------------------------------
There are 5 groups of distinct atoms

 Group   1 Type N   : 12s5p4d2f1g contracted to 6s4p3d1f1g pattern {711111/2111/211/2/1}
 Group   2 Type C   : 12s5p4d2f1g contracted to 6s4p3d1f1g pattern {711111/2111/211/2/1}
 Group   3 Type H   : 5s2p1d contracted to 3s1p1d pattern {311/2/1}
 Group   4 Type S   : 14s5p5d2f1g contracted to 8s4p3d1f1g pattern {71111111/2111/311/2/1}
 Group   5 Type O   : 12s5p4d2f1g contracted to 6s4p3d1f1g pattern {711111/2111/211/2/1}

Atom   0N    basis set group =>   1
Atom   1N    basis set group =>   1
Atom   2C    basis set group =>   2
Atom   3C    basis set group =>   2
Atom   4C    basis set group =>   2
Atom   5C    basis set group =>   2
Atom   6C    basis set group =>   2
Atom   7C    basis set group =>   2
Atom   8C    basis set group =>   2
Atom   9C    basis set group =>   2
Atom  10H    basis set group =>   3
Atom  11H    basis set group =>   3
Atom  12C    basis set group =>   2
Atom  13C    basis set group =>   2
Atom  14C    basis set group =>   2
Atom  15C    basis set group =>   2
Atom  16H    basis set group =>   3
Atom  17C    basis set group =>   2
Atom  18H    basis set group =>   3
Atom  19C    basis set group =>   2
Atom  20H    basis set group =>   3
Atom  21H    basis set group =>   3
Atom  22H    basis set group =>   3
Atom  23C    basis set group =>   2
Atom  24C    basis set group =>   2
Atom  25C    basis set group =>   2
Atom  26C    basis set group =>   2
Atom  27H    basis set group =>   3
Atom  28C    basis set group =>   2
Atom  29H    basis set group =>   3
Atom  30C    basis set group =>   2
Atom  31H    basis set group =>   3
Atom  32H    basis set group =>   3
Atom  33H    basis set group =>   3
Atom  34C    basis set group =>   2
Atom  35C    basis set group =>   2
Atom  36S    basis set group =>   4
Atom  37C    basis set group =>   2
Atom  38H    basis set group =>   3
Atom  39C    basis set group =>   2
Atom  40H    basis set group =>   3
Atom  41C    basis set group =>   2
Atom  42C    basis set group =>   2
Atom  43S    basis set group =>   4
Atom  44C    basis set group =>   2
Atom  45H    basis set group =>   3
Atom  46C    basis set group =>   2
Atom  47H    basis set group =>   3
Atom  48C    basis set group =>   2
Atom  49C    basis set group =>   2
Atom  50C    basis set group =>   2
Atom  51H    basis set group =>   3
Atom  52C    basis set group =>   2
Atom  53H    basis set group =>   3
Atom  54N    basis set group =>   1
Atom  55C    basis set group =>   2
Atom  56H    basis set group =>   3
Atom  57C    basis set group =>   2
Atom  58H    basis set group =>   3
Atom  59C    basis set group =>   2
Atom  60C    basis set group =>   2
Atom  61N    basis set group =>   1
Atom  62C    basis set group =>   2
Atom  63O    basis set group =>   5
Atom  64O    basis set group =>   5
Atom  65H    basis set group =>   3
Atom  66C    basis set group =>   2
Atom  67H    basis set group =>   3
Atom  68C    basis set group =>   2
Atom  69H    basis set group =>   3
Atom  70H    basis set group =>   3
Atom  71H    basis set group =>   3
Atom  72C    basis set group =>   2
Atom  73H    basis set group =>   3
Atom  74H    basis set group =>   3
Atom  75H    basis set group =>   3
------------------------------------------------------------------------------
                             ORCA STARTUP CALCULATIONS
                           -- RI-GTO INTEGRALS CHOSEN --
------------------------------------------------------------------------------
------------------------------------------------------------------------------
                   ___                                                        
                  /   \      - P O W E R E D   B Y -                         
                 /     \                                                     
                 |  |  |   _    _      __       _____    __    __             
                 |  |  |  | |  | |    /  \     |  _  \  |  |  /  |          
                  \  \/   | |  | |   /    \    | | | |  |  | /  /          
                 / \  \   | |__| |  /  /\  \   | |_| |  |  |/  /          
                |  |  |   |  __  | /  /__\  \  |    /   |      \           
                |  |  |   | |  | | |   __   |  |    \   |  |\   \          
                \     /   | |  | | |  |  |  |  | |\  \  |  | \   \       
                 \___/    |_|  |_| |__|  |__|  |_| \__\ |__|  \__/        
                                                                              
                      - O R C A' S   B I G   F R I E N D -                    
                                      &                                       
                       - I N T E G R A L  F E E D E R -                       
                                                                              
 v1 FN, 2020, v2 2021, v3 2022-2024                                           
------------------------------------------------------------------------------


----------------------
SHARK INTEGRAL PACKAGE
----------------------

Number of atoms                             ...     76
Number of basis functions                   ...   1048
Number of shells                            ...    504
Maximum angular momentum                    ...      2
Integral batch strategy                     ... SHARK/LIBINT Hybrid
RI-J (if used) integral strategy            ... SPLIT-RIJ (Revised 2003 algorithm where possible)
Printlevel                                  ...      1
Contraction scheme used                     ... SEGMENTED contraction
Prescreening option                         ... SCHWARTZ
   Thresh                                   ... 2.500e-11
   Tcut                                     ... 2.500e-12
   Tpresel                                  ... 2.500e-12 
Coulomb Range Separation                    ... NOT USED
Exchange Range Separation                   ... NOT USED
Multipole approximations                    ... NOT USED
Finite Nucleus Model                        ... NOT USED
CABS basis                                  ... NOT available
Auxiliary Coulomb fitting basis             ... AVAILABLE
   # of basis functions in Aux-J            ...   2664
   # of shells in Aux-J                     ...    864
   Maximum angular momentum in Aux-J        ...      4
Auxiliary J/K fitting basis                 ... NOT available
Auxiliary Correlation fitting basis         ... NOT available
Auxiliary 'external' fitting basis          ... NOT available

Checking pre-screening integrals            ... done (  0.0 sec) Dimension = 504
Check shell pair data                       ... done (  0.0 sec)
Shell pair information
Shell pair cut-off parameter TPreSel        ...   2.5e-12
Total number of shell pairs                 ...    127260
Shell pairs after pre-screening             ...     47265
Total number of primitive shell pairs       ...    497606
Primitive shell pairs kept                  ...    106218
          la=0 lb=0:  13929 shell pairs
          la=1 lb=0:  18813 shell pairs
          la=1 lb=1:   6453 shell pairs
          la=2 lb=0:   4534 shell pairs
          la=2 lb=1:   3128 shell pairs
          la=2 lb=2:    408 shell pairs

Calculating one electron integrals          ... done (  0.2 sec)
Calculating RI/J V-Matrix + Cholesky decomp.... done (  0.2 sec)
Calculating Nuclear repulsion               ... done (  0.0 sec) ENN=   5647.877576610078 Eh

Diagonalization of the overlap matrix:
Smallest eigenvalue                        ... 9.002e-05
Time for diagonalization                   ...    0.116 sec
Threshold for overlap eigenvalues          ... 1.000e-07
Number of eigenvalues below threshold      ... 0
Time for construction of square roots      ...    0.067 sec
Total time needed                          ...    0.184 sec

-------------------
DFT GRID GENERATION
-------------------

General Integration Accuracy     IntAcc      ... 4.388
Radial Grid Type                 RadialGrid  ... OptM3 with GC (2021)
Angular Grid (max. ang.)         AngularGrid ... 4 (Lebedev-302)
Angular grid pruning method      GridPruning ... 4 (adaptive)
Weight generation scheme         WeightScheme... mBecke (2022)
Basis function cutoff            BFCut       ... 1.0000e-11
Integration weight cutoff        WCut        ... 1.0000e-14
Partially contracted basis set               ... off
Rotationally invariant grid construction     ... off
Angular grids for H and He will be reduced by one unit

Total number of grid points                  ...   377867
Total number of batches                      ...     5946
Average number of points per batch           ...       63
Average number of grid points per atom       ...     4972

--------------------
COSX GRID GENERATION
--------------------

GRIDX 1
-------
General Integration Accuracy     IntAcc      ... 3.816
Radial Grid Type                 RadialGrid  ... OptM3 with GC (2021)
Angular Grid (max. ang.)         AngularGrid ... 1 (Lebedev-50)
Angular grid pruning method      GridPruning ... 4 (adaptive)
Weight generation scheme         WeightScheme... mBecke (2022)
Basis function cutoff            BFCut       ... 1.0000e-11
Integration weight cutoff        WCut        ... 1.0000e-14
Partially contracted basis set               ... on
Rotationally invariant grid construction     ... off
Angular grids for H and He will be reduced by one unit

Total number of grid points                  ...    49914
Total number of batches                      ...      430
Average number of points per batch           ...      116
Average number of grid points per atom       ...      657
UseSFitting                                  ... on

GRIDX 2
-------
General Integration Accuracy     IntAcc      ... 4.020
Radial Grid Type                 RadialGrid  ... OptM3 with GC (2021)
Angular Grid (max. ang.)         AngularGrid ... 2 (Lebedev-110)
Angular grid pruning method      GridPruning ... 4 (adaptive)
Weight generation scheme         WeightScheme... mBecke (2022)
Basis function cutoff            BFCut       ... 1.0000e-11
Integration weight cutoff        WCut        ... 1.0000e-14
Partially contracted basis set               ... on
Rotationally invariant grid construction     ... off
Angular grids for H and He will be reduced by one unit

Total number of grid points                  ...   104511
Total number of batches                      ...      854
Average number of points per batch           ...      122
Average number of grid points per atom       ...     1375
UseSFitting                                  ... on

GRIDX 3
-------
General Integration Accuracy     IntAcc      ... 4.338
Radial Grid Type                 RadialGrid  ... OptM3 with GC (2021)
Angular Grid (max. ang.)         AngularGrid ... 3 (Lebedev-194)
Angular grid pruning method      GridPruning ... 4 (adaptive)
Weight generation scheme         WeightScheme... mBecke (2022)
Basis function cutoff            BFCut       ... 1.0000e-11
Integration weight cutoff        WCut        ... 1.0000e-14
Partially contracted basis set               ... on
Rotationally invariant grid construction     ... off
Angular grids for H and He will be reduced by one unit

Total number of grid points                  ...   229465
Total number of batches                      ...     1830
Average number of points per batch           ...      125
Average number of grid points per atom       ...     3019
UseSFitting                                  ... on
Initializing property integral containers    ... done (  0.0 sec)

SHARK setup successfully completed in   9.5 seconds

Maximum memory used throughout the entire STARTUP-calculation: 199.6 MB
-------------------------------------------------------------------------------
                                 ORCA GUESS
                   Start orbitals & Density for SCF / CASSCF
-------------------------------------------------------------------------------

------------
SCF SETTINGS
------------
Hamiltonian:
 Density Functional     Method          .... DFT(GTOs)
 Exchange Functional    Exchange        .... B88
   X-Alpha parameter    XAlpha          ....  0.666667
   Becke's b parameter  XBeta           ....  0.004200
 Correlation Functional Correlation     .... LYP
 LDA part of GGA corr.  LDAOpt          .... VWN-5
 Gradients option       PostSCFGGA      .... off
 Hybrid DFT is turned on
   Fraction HF Exchange ScalHFX         ....  0.200000
   Scaling of DF-GGA-X  ScalDFX         ....  0.720000
   Scaling of DF-GGA-C  ScalDFC         ....  0.810000
   Scaling of DF-LDA-C  ScalLDAC        ....  1.000000
   Perturbative correction              ....  0.000000
   NL short-range parameter             ....  4.800000
 RI-approximation to the Coulomb term is turned on
   Number of AuxJ basis functions       .... 2664
   RIJ-COSX (HFX calculated with COS-X)).... on


General Settings:
 Integral files         IntName         .... QX-DMA
 Hartree-Fock type      HFTyp           .... RHF
 Total Charge           Charge          ....    0
 Multiplicity           Mult            ....    1
 Number of Electrons    NEL             ....  344
 Basis Dimension        Dim             .... 1048
 Nuclear Repulsion      ENuc            ....   5647.8775766101 Eh

Convergence Acceleration:
 AO-DIIS                CNVDIIS         .... on
   Start iteration      DIISMaxIt       ....    12
   Startup error        DIISStart       ....  0.200000
   # of expansion vecs  DIISMaxEq       ....     5
   Bias factor          DIISBfac        ....   1.050
   Max. coefficient     DIISMaxC        ....  10.000
 MO-DIIS                CNVKDIIS        .... off
 Trust-Rad. Augm. Hess. CNVTRAH         .... auto
   Auto Start mean grad. ratio tolernc. ....  1.125000
   Auto Start start iteration           ....    50
   Auto Start num. interpolation iter.  ....    10
   Max. Number of Micro iterations      ....    24
   Max. Number of Macro iterations      .... Maxiter - #DIIS iter
   Number of Davidson start vectors     ....     2
   Converg. threshold    (grad. norm)   ....   1.000e-05
   Grad. Scal. Fac. for Micro threshold ....   0.100
   Minimum threshold for Micro iter.    ....   1.000e-02
   NR start threshold (gradient norm)   ....   1.000e-04
   Initial trust radius                 ....   0.400
   Minimum AH scaling param. (alpha)    ....   1.000
   Maximum AH scaling param. (alpha)    .... 1000.000
   Quad. conv. algorithm                .... NR
   White noise on init. David. guess    .... on
   Maximum white noise                  ....   0.010
   Pseudo random numbers                .... off
   Inactive MOs                         .... canonical
   Orbital update algorithm             .... Taylor
   Preconditioner                       .... Diag
   Full preconditioner red. dimension   ....   250
 SOSCF                  CNVSOSCF        .... on
   Start iteration      SOSCFMaxIt      ....   150
   Startup grad/error   SOSCFStart      ....  0.003300
   Hessian update       SOSCFHessUp     .... L-BFGS
 Level Shifting         CNVShift        .... on
   Level shift para.    LevelShift      ....    0.2500
   Turn off err/grad.   ShiftErr        ....    0.0010
 Zerner damping         CNVZerner       .... off
 Static damping         CNVDamp         .... on
   Fraction old density DampFac         ....    0.7000
   Max. Damping (<1)    DampMax         ....    0.9800
   Min. Damping (>=0)   DampMin         ....    0.0000
   Turn off err/grad.   DampErr         ....    0.1000

SCF Procedure:
 Maximum # iterations   MaxIter         ....   125
 SCF integral mode      SCFMode         .... Direct
   Integral package                     .... SHARK and LIBINT hybrid scheme
 Reset frequency        DirectResetFreq ....    20
 Integral Threshold     Thresh          ....  2.500e-11 Eh
 Primitive CutOff       TCut            ....  2.500e-12 Eh

Convergence Tolerance:
 Convergence Check Mode ConvCheckMode   .... Total+1el-Energy
 Convergence forced     ConvForced      .... 1
 Energy Change          TolE            ....  1.000e-08 Eh
 1-El. energy change                    ....  1.000e-05 Eh
 Orbital Gradient       TolG            ....  1.000e-05
 Orbital Rotation angle TolX            ....  1.000e-05
 DIIS Error             TolErr          ....  5.000e-07

------------------------------
INITIAL GUESS: MODEL POTENTIAL
------------------------------
Loading Hartree-Fock densities                     ... done
Calculating cut-offs                               ... done
Initializing the effective Hamiltonian             ... done
Setting up the integral package (SHARK)            ... done
Starting the Coulomb interaction                   ... done (   3.3 sec)
Making the grid                                    ... done (   1.1 sec)
Mapping shells                                     ... done
Starting the XC term evaluation                    ... done (   0.9 sec)
  promolecular density results
     # of electrons  =    343.987979923
     EX              =   -306.779464492
     EC              =    -11.968366761
     EX+EC           =   -318.747831253
Transforming the Hamiltonian                       ... done (   0.1 sec)
Diagonalizing the Hamiltonian                      ... done (   0.1 sec)
Back transforming the eigenvectors                 ... done (   0.0 sec)
Now organizing SCF variables                       ... done
                      ------------------
                      INITIAL GUESS DONE (   5.5 sec)
                      ------------------
             **** ENERGY FILE WAS UPDATED (QX-DMA.en.tmp) ****
Finished Guess after   5.8 sec
Maximum memory used throughout the entire GUESS-calculation: 128.8 MB

-------------------------------------------------------------------------------------------
                                      ORCA LEAN-SCF
                              memory conserving SCF solver
-------------------------------------------------------------------------------------------

--------------------
CPCM SOLVATION MODEL
--------------------
CPCM parameters:
  Epsilon                                         ...       7.5650
  Refrac                                          ...       1.4050
  Rsolv                                           ...       1.3000
  Surface type                                    ... GAUSSIAN VDW
  Discretization scheme                           ... Constant charge density
    Threshold for H atoms                         ...       5.0000 (charges/Ang^2)
    Threshold for non-H atoms                     ...       5.0000 (charges/Ang^2)
  Epsilon function type                           ...         CPCM
Solvent:                                          ... TETRAHYDROFURAN
Radii:
  Scheme                                          ... Element-dependent radii
  Radius for N  used is    3.5149 Bohr (=   1.8600 Ang.)
  Radius for C  used is    3.8550 Bohr (=   2.0400 Ang.)
  Radius for H  used is    2.4944 Bohr (=   1.3200 Ang.)
  Radius for S  used is    4.0818 Bohr (=   2.1600 Ang.)
  Radius for O  used is    3.4469 Bohr (=   1.8240 Ang.)
Calculating surface                               ...        done! (  0.0s)
Cavity surface points                             ...         6908
Cavity Volume                                     ...    5083.6184
Cavity Surface-area                               ...    2437.1551
Calculating surface distance matrix               ...        done! (  0.2s)
Performing Cholesky decomposition & store         ...        done! (  1.8s)
Overall time for CPCM initialization              ...                 2.0s

----------------------------------------D-I-I-S--------------------------------------------
Iteration    Energy (Eh)           Delta-E    RMSDP     MaxDP     DIISErr   Damp  Time(sec)
-------------------------------------------------------------------------------------------
               ***  Starting incremental Fock matrix formation  ***
    1    -2705.0857599684850356     0.00e+00  1.08e-03  1.44e-01  3.34e-01  0.700  76.8
Warning: op=0 Small HOMO/LUMO gap (   0.053) - skipping pre-diagonalization
         Will do a full diagonalization
    2    -2705.6043912208269830    -5.19e-01  7.58e-04  8.81e-02  1.29e-01  0.700  38.8
                               ***Turning on AO-DIIS***
    3    -2705.8151539327673163    -2.11e-01  3.16e-04  2.47e-02  4.20e-02  0.700  37.9
    4    -2705.9392096481578847    -1.24e-01  5.76e-04  6.43e-02  2.43e-02  0.000  35.5
    5    -2706.2095655774983243    -2.70e-01  1.25e-04  1.66e-02  6.63e-03  0.000  37.1
                              *** Initializing SOSCF ***
---------------------------------------S-O-S-C-F--------------------------------------
Iteration    Energy (Eh)           Delta-E    RMSDP     MaxDP     MaxGrad    Time(sec)
--------------------------------------------------------------------------------------
    6    -2706.2112380137104992    -1.67e-03  3.62e-05  2.28e-03  1.87e-03    32.3
               *** Restarting incremental Fock matrix formation ***
    7    -2706.2114339355457560    -1.96e-04  2.67e-05  2.23e-03  6.45e-04    76.9
    8    -2706.2114293715521853     4.56e-06  1.34e-05  1.71e-03  1.21e-03    48.0
    9    -2706.2114611340430201    -3.18e-05  5.66e-06  3.34e-04  1.35e-04    42.1
   10    -2706.2114603664149399     7.68e-07  2.69e-06  2.65e-04  1.60e-04    37.4
   11    -2706.2114623899969956    -2.02e-06  1.66e-06  1.47e-04  3.58e-05    31.1
   12    -2706.2114623728075458     1.72e-08  9.39e-07  8.68e-05  4.86e-05    30.5
   13    -2706.2114624905725577    -1.18e-07  3.09e-07  2.43e-05  6.11e-06    26.0
   14    -2706.2114624597770671     3.08e-08  1.75e-07  1.66e-05  6.98e-06    22.1
   15    -2706.2114625062631603    -4.65e-08  7.26e-08  6.10e-06  1.66e-06    20.1
                  *** Gradient check signals convergence ***

               *****************************************************
               *                     SUCCESS                       *
               *           SCF CONVERGED AFTER  15 CYCLES          *
               *****************************************************

Recomputing exchange energy using gridx3       ... done (  124.680 sec)
Old exchange energy                            :    -62.103182645 Eh
New exchange energy                            :    -62.103191068 Eh
Exchange energy change after final integration :     -0.000008423 Eh
Total energy after final integration           :  -2706.211470929 Eh
             **** ENERGY FILE WAS UPDATED (QX-DMA.en.tmp) ****

----------------
TOTAL SCF ENERGY
----------------

Total Energy       :      -2706.21147092947422 Eh          -73639.75790 eV

Components:
Nuclear Repulsion  :       5647.87757661007799 Eh          153686.56213 eV
Electronic Energy  :      -8354.05277186016610 Eh         -227325.33292 eV
One Electron Energy:     -14935.95656352547849 Eh         -406428.04050 eV
Two Electron Energy:       6581.90379166531238 Eh          179102.70758 eV
CPCM Dielectric    :         -0.03626725617459 Eh              -0.98688 eV

Virial components:
Potential Energy   :      -5404.76838879703610 Eh         -147071.22482 eV
Kinetic Energy     :       2698.55691786756188 Eh           73431.46692 eV
Virial Ratio       :          2.00283653570960

DFT components:
N(Alpha)           :      172.000096135697 electrons
N(Beta)            :      172.000096135697 electrons
N(Total)           :      344.000192271394 electrons
E(X)               :     -246.840100825054 Eh       
E(C)               :      -14.085905348961 Eh       
E(XC)              :     -260.926006174015 Eh       

CPCM Solvation Model Properties:
Surface-charge          :         -0.04173188241108
Corrected charge        :          0.00000000000000
Outlying charge corr.   :          0.00005634993875 Eh               0.00153 eV
Free-energy (cav+disp)  :  This term is not implemented in the current solvation scheme

---------------
SCF CONVERGENCE
---------------

  Last Energy change         ...    4.6486e-08  Tolerance :   1.0000e-08
  Last MAX-Density change    ...    6.1035e-06  Tolerance :   1.0000e-07
  Last RMS-Density change    ...    7.2613e-08  Tolerance :   5.0000e-09
  Last DIIS Error            ...    1.8684e-03  Tolerance :   5.0000e-07
  Last Orbital Gradient      ...    1.6563e-06  Tolerance :   1.0000e-05
  Last Orbital Rotation      ...    3.5737e-06  Tolerance :   1.0000e-05


----------------
ORBITAL ENERGIES
----------------

  NO   OCC          E(Eh)            E(eV) 
   0   2.0000     -88.885620     -2418.7007 
   1   2.0000     -88.870692     -2418.2945 
   2   2.0000     -19.165752      -521.5266 
   3   2.0000     -19.113732      -520.1111 
   4   2.0000     -14.333412      -390.0320 
   5   2.0000     -14.332678      -390.0120 
   6   2.0000     -14.331947      -389.9921 
   7   2.0000     -14.315639      -389.5483 
   8   2.0000     -10.315329      -280.6944 
   9   2.0000     -10.240692      -278.6634 
  10   2.0000     -10.238896      -278.6145 
  11   2.0000     -10.231004      -278.3998 
  12   2.0000     -10.230467      -278.3852 
  13   2.0000     -10.229567      -278.3607 
  14   2.0000     -10.224885      -278.2333 
  15   2.0000     -10.221265      -278.1348 
  16   2.0000     -10.219393      -278.0838 
  17   2.0000     -10.216878      -278.0154 
  18   2.0000     -10.215295      -277.9723 
  19   2.0000     -10.210300      -277.8364 
  20   2.0000     -10.208588      -277.7898 
  21   2.0000     -10.206867      -277.7430 
  22   2.0000     -10.205735      -277.7122 
  23   2.0000     -10.193094      -277.3682 
  24   2.0000     -10.193004      -277.3657 
  25   2.0000     -10.192563      -277.3537 
  26   2.0000     -10.192278      -277.3460 
  27   2.0000     -10.191613      -277.3279 
  28   2.0000     -10.191542      -277.3259 
  29   2.0000     -10.187492      -277.2158 
  30   2.0000     -10.186428      -277.1868 
  31   2.0000     -10.179824      -277.0071 
  32   2.0000     -10.179696      -277.0036 
  33   2.0000     -10.179133      -276.9883 
  34   2.0000     -10.178619      -276.9743 
  35   2.0000     -10.177593      -276.9464 
  36   2.0000     -10.177515      -276.9443 
  37   2.0000     -10.177200      -276.9357 
  38   2.0000     -10.176910      -276.9278 
  39   2.0000     -10.176353      -276.9126 
  40   2.0000     -10.176220      -276.9090 
  41   2.0000     -10.175755      -276.8964 
  42   2.0000     -10.175577      -276.8915 
  43   2.0000     -10.173479      -276.8344 
  44   2.0000     -10.173448      -276.8336 
  45   2.0000     -10.169957      -276.7386 
  46   2.0000     -10.166298      -276.6390 
  47   2.0000     -10.166173      -276.6356 
  48   2.0000      -7.970928      -216.9000 
  49   2.0000      -7.956228      -216.5000 
  50   2.0000      -5.933831      -161.4677 
  51   2.0000      -5.929908      -161.3610 
  52   2.0000      -5.927387      -161.2924 
  53   2.0000      -5.919209      -161.0699 
  54   2.0000      -5.915282      -160.9630 
  55   2.0000      -5.912533      -160.8882 
  56   2.0000      -1.113847       -30.3093 
  57   2.0000      -1.026530       -27.9333 
  58   2.0000      -1.000275       -27.2189 
  59   2.0000      -0.950003       -25.8509 
  60   2.0000      -0.930814       -25.3287 
  61   2.0000      -0.921295       -25.0697 
  62   2.0000      -0.903265       -24.5791 
  63   2.0000      -0.890888       -24.2423 
  64   2.0000      -0.877076       -23.8665 
  65   2.0000      -0.862230       -23.4625 
  66   2.0000      -0.861715       -23.4485 
  67   2.0000      -0.849264       -23.1096 
  68   2.0000      -0.838418       -22.8145 
  69   2.0000      -0.802768       -21.8444 
  70   2.0000      -0.800688       -21.7878 
  71   2.0000      -0.769987       -20.9524 
  72   2.0000      -0.763438       -20.7742 
  73   2.0000      -0.754958       -20.5434 
  74   2.0000      -0.753880       -20.5141 
  75   2.0000      -0.753355       -20.4998 
  76   2.0000      -0.751780       -20.4570 
  77   2.0000      -0.747138       -20.3307 
  78   2.0000      -0.741492       -20.1770 
  79   2.0000      -0.733342       -19.9553 
  80   2.0000      -0.718366       -19.5477 
  81   2.0000      -0.712398       -19.3853 
  82   2.0000      -0.683143       -18.5893 
  83   2.0000      -0.678223       -18.4554 
  84   2.0000      -0.670224       -18.2377 
  85   2.0000      -0.653912       -17.7939 
  86   2.0000      -0.646713       -17.5980 
  87   2.0000      -0.631056       -17.1719 
  88   2.0000      -0.614281       -16.7154 
  89   2.0000      -0.610483       -16.6121 
  90   2.0000      -0.609486       -16.5850 
  91   2.0000      -0.605636       -16.4802 
  92   2.0000      -0.601067       -16.3559 
  93   2.0000      -0.588660       -16.0183 
  94   2.0000      -0.574141       -15.6232 
  95   2.0000      -0.570158       -15.5148 
  96   2.0000      -0.561862       -15.2890 
  97   2.0000      -0.553111       -15.0509 
  98   2.0000      -0.544868       -14.8266 
  99   2.0000      -0.537752       -14.6330 
 100   2.0000      -0.531860       -14.4726 
 101   2.0000      -0.530237       -14.4285 
 102   2.0000      -0.524495       -14.2722 
 103   2.0000      -0.512899       -13.9567 
 104   2.0000      -0.507740       -13.8163 
 105   2.0000      -0.505199       -13.7472 
 106   2.0000      -0.492980       -13.4147 
 107   2.0000      -0.488650       -13.2968 
 108   2.0000      -0.482631       -13.1330 
 109   2.0000      -0.472744       -12.8640 
 110   2.0000      -0.470518       -12.8034 
 111   2.0000      -0.464146       -12.6301 
 112   2.0000      -0.462927       -12.5969 
 113   2.0000      -0.462575       -12.5873 
 114   2.0000      -0.460866       -12.5408 
 115   2.0000      -0.458014       -12.4632 
 116   2.0000      -0.451275       -12.2798 
 117   2.0000      -0.450314       -12.2537 
 118   2.0000      -0.445759       -12.1297 
 119   2.0000      -0.439755       -11.9663 
 120   2.0000      -0.436018       -11.8647 
 121   2.0000      -0.430818       -11.7231 
 122   2.0000      -0.426726       -11.6118 
 123   2.0000      -0.426207       -11.5977 
 124   2.0000      -0.425421       -11.5763 
 125   2.0000      -0.423033       -11.5113 
 126   2.0000      -0.416765       -11.3407 
 127   2.0000      -0.415325       -11.3016 
 128   2.0000      -0.411633       -11.2011 
 129   2.0000      -0.409471       -11.1423 
 130   2.0000      -0.402950       -10.9648 
 131   2.0000      -0.401916       -10.9367 
 132   2.0000      -0.397297       -10.8110 
 133   2.0000      -0.393703       -10.7132 
 134   2.0000      -0.393004       -10.6942 
 135   2.0000      -0.387297       -10.5389 
 136   2.0000      -0.386589       -10.5196 
 137   2.0000      -0.383822       -10.4443 
 138   2.0000      -0.380352       -10.3499 
 139   2.0000      -0.377340       -10.2679 
 140   2.0000      -0.376948       -10.2573 
 141   2.0000      -0.372987       -10.1495 
 142   2.0000      -0.371140       -10.0992 
 143   2.0000      -0.366902        -9.9839 
 144   2.0000      -0.361347        -9.8328 
 145   2.0000      -0.360381        -9.8065 
 146   2.0000      -0.356988        -9.7141 
 147   2.0000      -0.353370        -9.6157 
 148   2.0000      -0.351912        -9.5760 
 149   2.0000      -0.348525        -9.4838 
 150   2.0000      -0.347951        -9.4682 
 151   2.0000      -0.345910        -9.4127 
 152   2.0000      -0.342548        -9.3212 
 153   2.0000      -0.333584        -9.0773 
 154   2.0000      -0.330555        -8.9948 
 155   2.0000      -0.319757        -8.7010 
 156   2.0000      -0.307530        -8.3683 
 157   2.0000      -0.303320        -8.2538 
 158   2.0000      -0.294088        -8.0025 
 159   2.0000      -0.286182        -7.7874 
 160   2.0000      -0.282621        -7.6905 
 161   2.0000      -0.269780        -7.3411 
 162   2.0000      -0.268668        -7.3108 
 163   2.0000      -0.261508        -7.1160 
 164   2.0000      -0.259095        -7.0503 
 165   2.0000      -0.257970        -7.0197 
 166   2.0000      -0.257842        -7.0162 
 167   2.0000      -0.252843        -6.8802 
 168   2.0000      -0.243911        -6.6372 
 169   2.0000      -0.236818        -6.4442 
 170   2.0000      -0.213948        -5.8218 
 171   2.0000      -0.182936        -4.9779 
 172   0.0000      -0.109209        -2.9717 
 173   0.0000      -0.083058        -2.2601 
 174   0.0000      -0.057016        -1.5515 
 175   0.0000      -0.046207        -1.2574 
 176   0.0000      -0.022059        -0.6003 
 177   0.0000      -0.020391        -0.5549 
 178   0.0000      -0.011146        -0.3033 
 179   0.0000      -0.009615        -0.2616 
 180   0.0000      -0.005951        -0.1619 
 181   0.0000      -0.003943        -0.1073 
 182   0.0000       0.007796         0.2121 
*Only the first 10 virtual orbitals were printed.

                    ********************************
                    * MULLIKEN POPULATION ANALYSIS *
                    ********************************

-----------------------
MULLIKEN ATOMIC CHARGES
-----------------------
   0 N :   -0.385574
   1 N :   -0.373467
   2 C :    0.180363
   3 C :    0.165593
   4 C :    0.177805
   5 C :    0.171436
   6 C :   -0.044666
   7 C :   -0.010158
   8 C :   -0.042091
   9 C :   -0.056569
  10 H :    0.123150
  11 H :    0.120741
  12 C :   -0.155076
  13 C :   -0.047748
  14 C :   -0.046580
  15 C :   -0.114121
  16 H :    0.118114
  17 C :   -0.109793
  18 H :    0.124169
  19 C :   -0.101982
  20 H :    0.120232
  21 H :    0.120190
  22 H :    0.121074
  23 C :   -0.154687
  24 C :   -0.047898
  25 C :   -0.046286
  26 C :   -0.111181
  27 H :    0.124163
  28 C :   -0.114774
  29 H :    0.119131
  30 C :   -0.102657
  31 H :    0.119557
  32 H :    0.119945
  33 H :    0.120368
  34 C :   -0.234756
  35 C :   -0.036113
  36 S :    0.368615
  37 C :   -0.011629
  38 H :    0.130845
  39 C :   -0.324591
  40 H :    0.137236
  41 C :   -0.272343
  42 C :   -0.038267
  43 S :    0.329926
  44 C :   -0.066040
  45 H :    0.121292
  46 C :   -0.292237
  47 H :    0.117996
  48 C :   -0.013482
  49 C :   -0.074309
  50 C :   -0.160539
  51 H :    0.110189
  52 C :    0.254107
  53 H :    0.125471
  54 N :   -0.461470
  55 C :   -0.121536
  56 H :    0.116816
  57 C :   -0.161187
  58 H :    0.126085
  59 C :   -0.193021
  60 C :    0.065749
  61 N :   -0.291903
  62 C :    0.442052
  63 O :   -0.370055
  64 O :   -0.353759
  65 H :    0.291230
  66 C :    0.100315
  67 H :    0.148501
  68 C :   -0.177141
  69 H :    0.121934
  70 H :    0.129745
  71 H :    0.130618
  72 C :   -0.177861
  73 H :    0.130004
  74 H :    0.122080
  75 H :    0.130712
Sum of atomic charges:   -0.0000000

--------------------------------
MULLIKEN REDUCED ORBITAL CHARGES
--------------------------------
  0 N s       :     3.649293  s :     3.649293
      pz      :     1.123490  p :     3.700700
      px      :     1.079562
      py      :     1.497648
      dz2     :     0.003838  d :     0.035581
      dxz     :     0.006640
      dyz     :     0.004284
      dx2y2   :     0.007434
      dxy     :     0.013385

  1 N s       :     3.649198  s :     3.649198
      pz      :     1.113389  p :     3.688465
      px      :     1.074826
      py      :     1.500249
      dz2     :     0.003858  d :     0.035804
      dxz     :     0.006410
      dyz     :     0.004670
      dx2y2   :     0.007872
      dxy     :     0.012994

  2 C s       :     3.039346  s :     3.039346
      pz      :     0.965593  p :     2.683837
      px      :     0.872667
      py      :     0.845577
      dz2     :     0.005424  d :     0.096453
      dxz     :     0.014859
      dyz     :     0.010925
      dx2y2   :     0.036724
      dxy     :     0.028521

  3 C s       :     3.040412  s :     3.040412
      pz      :     0.978377  p :     2.698286
      px      :     0.797449
      py      :     0.922459
      dz2     :     0.005367  d :     0.095709
      dxz     :     0.014951
      dyz     :     0.009756
      dx2y2   :     0.031479
      dxy     :     0.034156

  4 C s       :     3.049148  s :     3.049148
      pz      :     0.916453  p :     2.676419
      px      :     0.851306
      py      :     0.908659
      dz2     :     0.005452  d :     0.096628
      dxz     :     0.015578
      dyz     :     0.009371
      dx2y2   :     0.031118
      dxy     :     0.035108

  5 C s       :     3.047669  s :     3.047669
      pz      :     0.926233  p :     2.684559
      px      :     0.882542
      py      :     0.875784
      dz2     :     0.005362  d :     0.096336
      dxz     :     0.013973
      dyz     :     0.010565
      dx2y2   :     0.038158
      dxy     :     0.028277

  6 C s       :     3.069614  s :     3.069614
      pz      :     1.006825  p :     2.903847
      px      :     0.999857
      py      :     0.897165
      dz2     :     0.004314  d :     0.071205
      dxz     :     0.009794
      dyz     :     0.010885
      dx2y2   :     0.024480
      dxy     :     0.021733

  7 C s       :     3.076134  s :     3.076134
      pz      :     0.955576  p :     2.860784
      px      :     1.005652
      py      :     0.899556
      dz2     :     0.004256  d :     0.073240
      dxz     :     0.009976
      dyz     :     0.012802
      dx2y2   :     0.021204
      dxy     :     0.025002

  8 C s       :     3.165583  s :     3.165583
      pz      :     0.949808  p :     2.817630
      px      :     0.962464
      py      :     0.905359
      dz2     :     0.003876  d :     0.058878
      dxz     :     0.004193
      dyz     :     0.011514
      dx2y2   :     0.020203
      dxy     :     0.019092

  9 C s       :     3.161674  s :     3.161674
      pz      :     0.978333  p :     2.837358
      px      :     0.933024
      py      :     0.926001
      dz2     :     0.003863  d :     0.057538
      dxz     :     0.006428
      dyz     :     0.007940
      dx2y2   :     0.016771
      dxy     :     0.022537

 10 H s       :     0.850708  s :     0.850708
      pz      :     0.005532  p :     0.026142
      px      :     0.015224
      py      :     0.005386

 11 H s       :     0.853055  s :     0.853055
      pz      :     0.005753  p :     0.026204
      px      :     0.011369
      py      :     0.009082

 12 C s       :     3.129868  s :     3.129868
      pz      :     0.982612  p :     2.954701
      px      :     0.976870
      py      :     0.995219
      dz2     :     0.012562  d :     0.070508
      dxz     :     0.010638
      dyz     :     0.013456
      dx2y2   :     0.014333
      dxy     :     0.019519

 13 C s       :     3.181205  s :     3.181205
      pz      :     0.955925  p :     2.808535
      px      :     0.953077
      py      :     0.899533
      dz2     :     0.006591  d :     0.058008
      dxz     :     0.009992
      dyz     :     0.011741
      dx2y2   :     0.016403
      dxy     :     0.013281

 14 C s       :     3.177067  s :     3.177067
      pz      :     0.933051  p :     2.811245
      px      :     0.916414
      py      :     0.961781
      dz2     :     0.008321  d :     0.058267
      dxz     :     0.009845
      dyz     :     0.012040
      dx2y2   :     0.016249
      dxy     :     0.011813

 15 C s       :     3.176044  s :     3.176044
      pz      :     0.967772  p :     2.879625
      px      :     0.942849
      py      :     0.969004
      dz2     :     0.008171  d :     0.058452
      dxz     :     0.009632
      dyz     :     0.012193
      dx2y2   :     0.015823
      dxy     :     0.012633

 16 H s       :     0.856146  s :     0.856146
      pz      :     0.009541  p :     0.025740
      px      :     0.011479
      py      :     0.004720

[...]
   Size of expansion space: 60
   Lowest Energy          :     0.065798493808
   Maximum Energy change  :     0.000212847589 (vector 8)
   Maximum residual norm  :     0.000018354293

                       ****Iteration    4****
   Time for iteration     :  TOTAL=133.5 TRAFO=0.2 RIJ=17.7 COSX=47.5 XC=5.3
   Size of expansion space: 70
   Lowest Energy          :     0.065797617080
   Maximum Energy change  :     0.000029624929 (vector 8)
   Maximum residual norm  :     0.000001196412

                       ****Iteration    5****
   Time for iteration     :  TOTAL=133.3 TRAFO=0.2 RIJ=17.8 COSX=47.6 XC=5.3
   Size of expansion space: 80
   Lowest Energy          :     0.065797583395
   Maximum Energy change  :     0.000001569607 (vector 8)
   Maximum residual norm  :     0.000000116320

      *** CONVERGENCE OF RESIDUAL NORM REACHED ***

Storing the converged CI vectors               ... QX-DMA.cis1

                 *** DAVIDSON DONE ***

Total time for solving the CIS problem:   976.657sec

------------------------------------
TD-DFT/TDA EXCITED STATES (SINGLETS)
------------------------------------

the weight of the individual excitations are printed if larger than 1.0e-02

STATE  1:  E=   0.065798 au      1.790 eV    14440.9 cm**-1 <S**2> =   0.000000 Mult 1
   171a -> 172a  :     0.982690 (c=  0.99130708)

STATE  2:  E=   0.087801 au      2.389 eV    19270.1 cm**-1 <S**2> =   0.000000 Mult 1
   170a -> 172a  :     0.053067 (c=  0.23036225)
   171a -> 173a  :     0.918896 (c= -0.95859077)

STATE  3:  E=   0.097233 au      2.646 eV    21340.1 cm**-1 <S**2> =   0.000000 Mult 1
   170a -> 172a  :     0.893810 (c=  0.94541532)
   171a -> 173a  :     0.050663 (c=  0.22508333)
   171a -> 175a  :     0.011826 (c=  0.10874805)

STATE  4:  E=   0.109972 au      2.992 eV    24136.1 cm**-1 <S**2> =   0.000000 Mult 1
   168a -> 172a  :     0.013171 (c= -0.11476573)
   169a -> 172a  :     0.468478 (c= -0.68445478)
   170a -> 174a  :     0.013880 (c= -0.11781303)
   171a -> 174a  :     0.470188 (c=  0.68570251)

STATE  5:  E=   0.112857 au      3.071 eV    24769.3 cm**-1 <S**2> =   0.000000 Mult 1
   169a -> 172a  :     0.448508 (c= -0.66970765)
   170a -> 173a  :     0.030899 (c= -0.17578162)
   171a -> 174a  :     0.482663 (c= -0.69473924)
   171a -> 175a  :     0.014767 (c=  0.12151923)

STATE  6:  E=   0.116710 au      3.176 eV    25614.8 cm**-1 <S**2> =   0.000000 Mult 1
   168a -> 172a  :     0.110632 (c=  0.33261385)
   169a -> 172a  :     0.015291 (c=  0.12365704)
   170a -> 173a  :     0.789654 (c= -0.88862483)
   171a -> 174a  :     0.022216 (c=  0.14904937)

STATE  7:  E=   0.118763 au      3.232 eV    26065.5 cm**-1 <S**2> =   0.000000 Mult 1
   161a -> 172a  :     0.017192 (c= -0.13111702)
   164a -> 172a  :     0.088667 (c=  0.29776928)
   164a -> 173a  :     0.010944 (c=  0.10461315)
   165a -> 172a  :     0.162928 (c= -0.40364357)
   165a -> 173a  :     0.019230 (c= -0.13867197)
   166a -> 172a  :     0.223070 (c= -0.47230315)
   166a -> 173a  :     0.028763 (c= -0.16959538)
   167a -> 172a  :     0.371204 (c= -0.60926477)
   167a -> 173a  :     0.035406 (c= -0.18816406)

STATE  8:  E=   0.122102 au      3.323 eV    26798.3 cm**-1 <S**2> =   0.000000 Mult 1
   168a -> 172a  :     0.302927 (c= -0.55038796)
   169a -> 172a  :     0.026881 (c=  0.16395450)
   170a -> 173a  :     0.012598 (c= -0.11224219)
   170a -> 175a  :     0.013335 (c= -0.11547629)
   171a -> 175a  :     0.606919 (c=  0.77904997)

STATE  9:  E=   0.128104 au      3.486 eV    28115.7 cm**-1 <S**2> =   0.000000 Mult 1
   164a -> 172a  :     0.042602 (c= -0.20640371)
   165a -> 172a  :     0.020020 (c=  0.14149213)
   167a -> 172a  :     0.055119 (c= -0.23477466)
   168a -> 172a  :     0.367558 (c=  0.60626550)
   169a -> 173a  :     0.103292 (c= -0.32139083)
   170a -> 172a  :     0.010168 (c= -0.10083852)
   170a -> 173a  :     0.066200 (c=  0.25729284)
   170a -> 174a  :     0.027735 (c=  0.16653727)
   170a -> 175a  :     0.011884 (c=  0.10901485)
   171a -> 175a  :     0.243623 (c=  0.49358166)

STATE 10:  E=   0.129372 au      3.520 eV    28393.8 cm**-1 <S**2> =   0.000000 Mult 1
   164a -> 172a  :     0.151574 (c=  0.38932529)
   165a -> 172a  :     0.051902 (c= -0.22782009)
   166a -> 172a  :     0.146739 (c= -0.38306525)
   167a -> 172a  :     0.480317 (c=  0.69304916)
   168a -> 172a  :     0.048868 (c=  0.22106064)
   169a -> 173a  :     0.014453 (c= -0.12022196)
   170a -> 173a  :     0.015412 (c=  0.12414490)
   171a -> 175a  :     0.029427 (c=  0.17154240)


-----------------------------
TD-DFT/TDA-EXCITATION SPECTRA
-----------------------------

Center of mass = ( -3.5402,  1.0752,  9.2283)
Generating CIS transition densities           ... done

----------------------------------------------------------------------------------------------------
                     ABSORPTION SPECTRUM VIA TRANSITION ELECTRIC DIPOLE MOMENTS    
----------------------------------------------------------------------------------------------------
     Transition      Energy     Energy  Wavelength fosc(D2)      D2        DX        DY        DZ   
                      (eV)      (cm-1)    (nm)                 (au**2)    (au)      (au)      (au)  
----------------------------------------------------------------------------------------------------
  0-1A  ->  1-1A    1.790443   14440.9   692.5   1.077268519  24.55869  -1.15657   4.80284  -0.39208
  0-1A  ->  2-1A    2.389187   19270.1   518.9   0.016612163   0.28380  -0.15452  -0.50941   0.02078
  0-1A  ->  3-1A    2.645833   21340.1   468.6   0.768898851  11.86175   1.12666  -3.24952   0.18175
  0-1A  ->  4-1A    2.992490   24136.1   414.3   0.043347588   0.59125  -0.72766   0.24801  -0.01584
  0-1A  ->  5-1A    3.070997   24769.3   403.7   0.212370071   2.82264  -0.98331  -1.35467   0.14356
  0-1A  ->  6-1A    3.175836   25614.8   390.4   0.087182462   1.12050   0.73287  -0.75960   0.08000
  0-1A  ->  7-1A    3.231706   26065.5   383.6   0.002757365   0.03483  -0.01992   0.13855   0.12342
  0-1A  ->  8-1A    3.322561   26798.3   373.2   0.737256303   9.05706   1.23245  -2.72584   0.32853
  0-1A  ->  9-1A    3.485896   28115.7   355.7   0.001921211   0.02250  -0.07165  -0.12154   0.05089
  0-1A  -> 10-1A    3.520379   28393.8   352.2   0.013672491   0.15853  -0.39799  -0.01028  -0.00525

----------------------------------------------------------------------------------------------------
                     ABSORPTION SPECTRUM VIA TRANSITION VELOCITY DIPOLE MOMENTS    
----------------------------------------------------------------------------------------------------
     Transition      Energy     Energy  Wavelength fosc(P2)      P2        PX        PY        PZ   
                      (eV)      (cm-1)    (nm)                 (au**2)    (au)      (au)      (au)  
----------------------------------------------------------------------------------------------------
  0-1A  ->  1-1A    1.790443   14440.9   692.5   0.279705871   0.02761   0.04547  -0.15821   0.02255
  0-1A  ->  2-1A    2.389187   19270.1   518.9   0.011347096   0.00149   0.02462   0.02903  -0.00674
  0-1A  ->  3-1A    2.645833   21340.1   468.6   0.286592963   0.04180  -0.11684   0.16730  -0.01260
  0-1A  ->  4-1A    2.992490   24136.1   414.3   0.011851429   0.00195   0.03394  -0.02831   0.00139
  0-1A  ->  5-1A    3.070997   24769.3   403.7   0.073366222   0.01242   0.03248   0.10595  -0.01184
  0-1A  ->  6-1A    3.175836   25614.8   390.4   0.048889588   0.00856  -0.05860   0.07122  -0.00729
  0-1A  ->  7-1A    3.231706   26065.5   383.6   0.003793521   0.00068   0.00150  -0.00902   0.02433
  0-1A  ->  8-1A    3.322561   26798.3   373.2   0.362387215   0.06637  -0.07868   0.24364  -0.02864
  0-1A  ->  9-1A    3.485896   28115.7   355.7   0.035697301   0.00686   0.06450   0.05041  -0.01256
  0-1A  -> 10-1A    3.520379   28393.8   352.2   0.000196732   0.00004   0.00577   0.00048  -0.00216

------------------------------------------------------------------------------------------
                     CD SPECTRUM VIA TRANSITION ELECTRIC DIPOLE MOMENTS    
------------------------------------------------------------------------------------------
     Transition      Energy     Energy  Wavelength    R        MX        MY        MZ   
                      (eV)      (cm-1)    (nm)   (1e40*cgs)   (au)      (au)      (au)  
------------------------------------------------------------------------------------------
  0-1A  ->  1-1A    1.790443   14440.9   692.5   14.38187  -0.09221   0.02635   0.67262
  0-1A  ->  2-1A    2.389187   19270.1   518.9    2.77630   0.03395  -0.00567  -0.17002
  0-1A  ->  3-1A    2.645833   21340.1   468.6   12.56906  -0.02261  -0.03364  -0.60801
  0-1A  ->  4-1A    2.992490   24136.1   414.3   -1.09376  -0.00434   0.00913   0.19596
  0-1A  ->  5-1A    3.070997   24769.3   403.7   72.27654   0.10729  -0.01649  -0.48869
  0-1A  ->  6-1A    3.175836   25614.8   390.4   -3.02199   0.00475  -0.01645  -0.11955
  0-1A  ->  7-1A    3.231706   26065.5   383.6   -2.26528   0.01861   0.00236   0.03929
  0-1A  ->  8-1A    3.322561   26798.3   373.2  -25.23622   0.10866  -0.05498  -0.70082
  0-1A  ->  9-1A    3.485896   28115.7   355.7   12.05719   0.13160  -0.00997  -0.34111
  0-1A  -> 10-1A    3.520379   28393.8   352.2    9.69232   0.05195  -0.00568  -0.01126

------------------------------------------------------------------------------------------
                     CD SPECTRUM VIA TRANSITION VELOCITY DIPOLE MOMENTS    
------------------------------------------------------------------------------------------
     Transition      Energy     Energy  Wavelength    R        MX        MY        MZ   
                      (eV)      (cm-1)    (nm)   (1e40*cgs)   (au)      (au)      (au)  
------------------------------------------------------------------------------------------
  0-1A  ->  1-1A    1.790443   14440.9   692.5   48.76973  -0.09221   0.02635   0.67262
  0-1A  ->  2-1A    2.389187   19270.1   518.9    9.75786   0.03395  -0.00567  -0.17002
  0-1A  ->  3-1A    2.645833   21340.1   468.6   22.67101  -0.02261  -0.03364  -0.60801
  0-1A  ->  4-1A    2.992490   24136.1   414.3   -0.56866  -0.00434   0.00913   0.19596
  0-1A  ->  5-1A    3.070997   24769.3   403.7   31.42025   0.10729  -0.01649  -0.48869
  0-1A  ->  6-1A    3.175836   25614.8   390.4   -2.33646   0.00475  -0.01645  -0.11955
  0-1A  ->  7-1A    3.231706   26065.5   383.6    3.82152   0.01861   0.00236   0.03929
  0-1A  ->  8-1A    3.322561   26798.3   373.2   -7.24140   0.10866  -0.05498  -0.70082
  0-1A  ->  9-1A    3.485896   28115.7   355.7   45.15680   0.13160  -0.00997  -0.34111
  0-1A  -> 10-1A    3.520379   28393.8   352.2    1.17087   0.05195  -0.00568  -0.01126

Total run time:      978.661 sec

           *** ORCA-CIS/TD-DFT FINISHED WITHOUT ERROR ***
-----------------------
CIS/TD-DFT TOTAL ENERGY
-----------------------

    E(SCF)  =  -2706.211470929 Eh
    DE(CIS) =      0.065797583 Eh (Root  1)
    ----------------------------- ---------
    E(tot)  =  -2706.145673346 Eh


Maximum memory used throughout the entire CIS-calculation: 573.7 MB
=> NOW LEAVING ORCA_CIS

-------------------------   --------------------
FINAL SINGLE POINT ENERGY     -2706.145673346080
-------------------------   --------------------


------------------------------------------------------------------------------
                              ORCA PROPERTY CALCULATIONS
------------------------------------------------------------------------------

GBWName                                 ... QX-DMA.gbw
Number of atoms                         ...     76
Number of basis functions               ...   1048
Max core memory                         ...   1024 MB

Electric properties:
Dipole moment                           ... YES
Quadrupole moment                       ...  NO
Static polarizability (Dipole/Dipole)   ...  NO
Static polarizability (Dipole/Quad.)    ...  NO
Static polarizability (Quad./Quad.)     ...  NO
Static polarizability (Velocity)        ...  NO

Atomic electric properties:
Dipole moment                           ...  NO
Quadrupole moment                       ...  NO
Static polarizability                   ...  NO

Choice of electric origin               ... Center of mass
Position of electric origin             ...    -3.540160     1.075238     9.228266

General magnetic properties:
Magnetizability                         ...  NO

EPR properties:
g-Tensor (aka g-matrix)                 ...  NO
Zero-Field splitting spin-orbit         ...  NO
Zero-field splitting spin-spin          ...  NO
Hyperfine couplings                     ...  NO (   0 nuclei)
Quadrupole couplings                    ...  NO (   0 nuclei)
Contact density                         ...  NO (   0 nuclei)

NMR properties:
Chemical shifts                         ...  NO (   0 nuclei)
Spin-rotation constants                 ...  NO (   0 nuclei)
Spin-spin couplings                     ...  NO (   0 nuclei,    0 pairs)

Choice of magnetic origin               ... GIAO
Position of magnetic origin             ...     0.000000     0.000000     0.000000

Properties with geometric perturbations:
SCF Hessian                             ...  NO
IR spectrum                             ...  NO
VCD spectrum                            ...  NO
X-ray spectroscopy properties:
SCF XES/XAS/RIXS spectra                ...  NO


-------------
DIPOLE MOMENT
-------------

Method             : SCF
Type of density    : Electron Density
Multiplicity       :   1
Irrep              :   0
Energy             : -2706.2114709294742170 Eh
Relativity type    : 
Basis              : AO
                                X                 Y                 Z
Electronic contribution:    -28.206941354      57.432054651      -6.250046967
Nuclear contribution   :     32.181628433     -62.920602157       6.461004390
                        -----------------------------------------
Total Dipole Moment    :      3.974687079      -5.488547506       0.210957422
                        -----------------------------------------
Magnitude (a.u.)       :      6.779881572
Magnitude (Debye)      :     17.233089420



--------------------
Rotational spectrum 
--------------------
 
Rotational constants in cm-1:             0.003884             0.000768             0.000650 
Rotational constants in MHz :           116.443637            23.020072            19.492747 

Dipole components along the rotational axes: 
x,y,z [a.u.] :    -6.340746     2.382851    -0.289401 
x,y,z [Debye]:   -16.116896     6.056727    -0.735598 

 

Dipole moment calculation done in   0.0 sec 

Maximum memory used throughout the entire PROP-calculation: 120.4 MB

--------------------------------
SUGGESTED CITATIONS FOR THIS RUN
--------------------------------

Below you find a list of papers that are relevant to this ORCA run
We neither can nor want to force you to cite these papers, but we appreciate if you do
You receive ORCA, which is the product of decades of hard work by many enthusiastic individuals, for free
The only thing we kindly ask in return is that you cite our papers,
We deeply appreciate it, if you show your appreciation for ORCA by not just citing the generic ORCA reference.

Please note that relegating all ORCA citations to the supporting information does *not* help us.
SI sections are not indexed - citations you put there will not count into any citation statistics
But we need these citations in order to attract the funding resources that allow us to do what we are doing

Therefore, if you are a happy ORCA user, please consider citing a few of the papers listed below in the main body of your paper

In addition to the list printed below, the program has created the file QX-DMA.bibtex that contains the list in bibtex format
You can import this file easily into all common literature databanks and citation aid programs


List of essential papers. We consider these as the minimum necessary citations

  1. Neese,F.
     Software update: the ORCA program system, version 5.0
     WIRES Comput. Molec. Sci., 2022 12(1)e1606
     doi.org/10.1002/wcms.1606

List of papers to cite with high priority. The work reported in these papers was absolutely
necessary for this run to complete.
Our perspective: the developers of density functionals and basis sets usually get cited in chemistry papers
Good! But without the algorithms to do something with them, the functionals or basis sets would not do anything.
Hence, in our opinion, the algorithm design and method developments papers are equally worthy of getting cited

  1. Neese,F.; Olbrich,G.
     Efficient use of the resolution of the identity approximation in time-dependent density functional calculations with hybrid density functionals
     Chem. Phys. Lett., 2002 362 170-178
     doi.org/10.1016/s0009-2614(02)01053-9
  2. Neese,F.
     An improvement of the resolution of the identity approximation for the formation of the Coulomb matrix
     J. Comp. Chem., 2003 24(14)1740-1747
     doi.org/10.1002/jcc.10318
  3. Neese,F.; Wennmohs,F.; Hansen,A.; Becker,U.
     Efficient, approximate and parallel Hartree-Fock and hybrid DFT calculations. A 'chain-of-spheres' algorithm for the Hartree-Fock exchange
     Chem. Phys., 2009 356(1-3)98-109
     doi.org/10.1016/j.chemphys.2008.10.036
  4. Garcia-Rates,M.; Neese,F.
     Effect of the Solute Cavity on the Solvation Energy and its Derivatives within the Framework of the Gaussian Charge Scheme
     J. Comput. Chem., 2020 41 922-939
     doi.org/10.1002/jcc.26139
  5. Helmich-Paris,B.; de Souza,B.; Neese,F.; Izsák,R.
     An improved chain of spheres for exchange algorithm
     J. Chem. Phys., 2021 155 104109
     doi.org/doi: 10.1063/5.0058766.
  6. Neese,F.
     The SHARK Integral Generation and Digestion System
     J. Comp. Chem., 2022  1-16
     doi.org/10.1002/jcc.26942

List of suggested additional citations. These are papers that are important in the 'surrounding' of 
of this run, or papers that preceded the highly important papers. If you like your results we are grateful for a citation.

  1. Izsak,R.; Neese,F.
     An overlap fitted chain of spheres exchange method
     J. Chem. Phys., 2011 135 144105
     doi.org/10.1063/1.3646921
  2. Izsak,R.; Hansen,A.; Neese,F.
     The resolution of identity and chain of spheres approximations for the LPNO-CCSD singles Fock term
     Molec. Phys., 2012 110 2413-2417
     doi.org/10.1080/00268976.2012.687466
  3. Neese,F.
     The ORCA program system
     WIRES Comput. Molec. Sci., 2012 2(1)73-78
     doi.org/10.1002/wcms.81
  4. Izsak,R.; Neese,F.; Klopper,W.
     Robust fitting techniques in the chain of spheres approximation to the Fock exchange: The role of the complementary space
     J. Chem. Phys., 2013 139 
     doi.org/10.1063/1.4819264
  5. Neese,F.
     Software update: the ORCA program system, version 4.0
     WIRES Comput. Molec. Sci., 2018 8(1)1-6
     doi.org/10.1002/wcms.1327
  6. Neese,F.; Wennmohs,F.; Becker,U.; Riplinger,C.
     The ORCA quantum chemistry program package
     J. Chem. Phys., 2020 152 Art. No. L224108
     doi.org/10.1063/5.0004608

List of optional additional citations

  1. Neese,F.
     Approximate second-order SCF convergence for spin unrestricted wavefunctions
     Chem. Phys. Lett., 2000 325(1-3)93-98
     doi.org/10.1016/s0009-2614(00)00662-x

Timings for individual modules:

Sum of individual times          ...     1714.567 sec (=  28.576 min)
Startup calculation              ...        9.573 sec (=   0.160 min)   0.6 %
SCF iterations                   ...      725.963 sec (=  12.099 min)  42.3 %
Property integrals               ...        0.241 sec (=   0.004 min)   0.0 %
Property calculations            ...        0.095 sec (=   0.002 min)   0.0 %
CIS module                       ...      978.694 sec (=  16.312 min)  57.1 %
                             ****ORCA TERMINATED NORMALLY****
TOTAL RUN TIME: 0 days 0 hours 28 minutes 34 seconds 644 msec
